version 2
run Alt-0-20110726-13:45:49-5133
attr configname Alt
attr datetime 20110726-13:45:49
attr experiment Alt
attr inifile /home/reu/Desktop/omnetpp-4.1/samples/myWSN/omnetpp.ini
attr iterationvars ""
attr iterationvars2 $repetition=0
attr measurement ""
attr network MyWSN2
attr processid 5133
attr repetition 0
attr replication #0
attr resultdir results
attr runnumber 0
attr seedset 0

vector 1  MyWSN2.node[0].appl  "Total Power"  ETV
vector 8  MyWSN2.node[1].appl  "Total Power"  ETV
vector 15  MyWSN2.node[2].appl  "Total Power"  ETV
vector 22  MyWSN2.node[3].appl  "Total Power"  ETV
vector 29  MyWSN2.node[4].appl  "Total Power"  ETV
vector 36  MyWSN2.baseStation.appl  "Total Power"  ETV
vector 42  MyWSN2.baseStation.nic.phy  "Total packets sent"  ETV
vector 43  MyWSN2.baseStation.nic.phy  "Total bytes sent"  ETV
vector 12  MyWSN2.node[1].nic.phy  "Total packets sent"  ETV
vector 13  MyWSN2.node[1].nic.phy  "Total bytes sent"  ETV
vector 19  MyWSN2.node[2].nic.phy  "Total packets sent"  ETV
vector 20  MyWSN2.node[2].nic.phy  "Total bytes sent"  ETV
vector 26  MyWSN2.node[3].nic.phy  "Total packets sent"  ETV
vector 27  MyWSN2.node[3].nic.phy  "Total bytes sent"  ETV
vector 5  MyWSN2.node[0].nic.phy  "Total packets sent"  ETV
vector 6  MyWSN2.node[0].nic.phy  "Total bytes sent"  ETV
vector 33  MyWSN2.node[4].nic.phy  "Total packets sent"  ETV
vector 34  MyWSN2.node[4].nic.phy  "Total bytes sent"  ETV
vector 37  MyWSN2.baseStation.appl  "Power Per Round"  ETV
vector 2  MyWSN2.node[0].appl  "Power Per Round"  ETV
vector 9  MyWSN2.node[1].appl  "Power Per Round"  ETV
vector 16  MyWSN2.node[2].appl  "Power Per Round"  ETV
vector 23  MyWSN2.node[3].appl  "Power Per Round"  ETV
vector 30  MyWSN2.node[4].appl  "Power Per Round"  ETV
vector 38  MyWSN2.baseStation.appl  "Num of Right Pkts"  ETV
vector 39  MyWSN2.baseStation.appl  "Amount of Bytes for Right Pkts"  ETV
1	1	1	54.12
1	13	2	108.24
1	25	3	162.36
1	37	4	216.48
1	228	5	270.6
1	320	6	324.7253658
1	332	7	378.8453658
1	391	8	432.9653658
1	499	9	487.0853658
1	534	10	541.21472328
1	567	11	595.33472328
1	584	12	649.45472328
1	639	13	703.57472328
1	695	14	757.69472328
1	814	15	762.40418348908
1	840	16	801.380373816
1	857	17	855.500373816
1	1010	18	899.88222678508
1	1022	19	899.94822678508
1	1237	20	933.846584352
1	1305	21	987.975941832
1	1331	22	1042.095941832
1	1401	23	1096.215941832
1	1585	24	1143.6563863371
1	1613	25	1143.7223863371
1	1653	26	1172.399992368
1	1757	27	1209.7015839291
1	1901	28	1209.7675839291
1	1927	29	1235.367571416
1	1943	30	1289.487571416
1	2042	31	1343.607571416
1	2193	32	1390.4616381291
1	2221	33	1390.5276381291
1	2261	34	1406.818661952
1	2365	35	1460.938661952
1	2445	36	1463.1408814251
1	2485	37	1463.543272488
1	2545	38	1517.663272488
1	2655	39	1563.8622047211
1	2674	40	1563.9282047211
1	2762	41	1580.874363024
1	2818	42	1634.994363024
1	2995	43	1689.123720504
1	3007	44	1743.243720504
1	3066	45	1797.363720504
1	3122	46	1851.553903584
1	3315	47	1905.683261064
1	3327	48	1959.803261064
1	3376	49	2013.923261064
1	3464	50	2068.043261064
1	3530	51	2092.1083775931
1	3625	52	2100.9181116
1	3763	53	2133.7060302171
1	3782	54	2133.7720302171
1	3813	55	2181.426482136
1	4016	56	2225.7787135131
1	4056	57	2225.8447135131
1	4082	58	2264.097012672
1	4141	59	2318.217012672
1	4197	60	2372.337012672
1	4296	61	2426.457012672
1	4362	62	2452.1720734971
1	4457	63	2463.656183208
1	4567	64	2504.5805261211
1	4586	65	2504.6465261211
1	4674	66	2535.515913744
1	4782	67	2587.3252187451
1	4817	68	2587.3912187451
1	4850	69	2616.02428428
1	4910	70	2670.14428428
1	5020	71	2696.7611820411
1	5039	72	2696.8271820411
1	5171	73	2718.8178289611
1	5287	74	2718.8838289611
1	5341	75	2753.013753864
1	5353	76	2807.133753864
1	5412	77	2861.253753864
1	5555	78	2915.373753864
1	5635	79	2936.4006031611
1	5675	80	2937.4378044
1	5692	81	2991.5578044
1	5747	82	3045.6778044
1	5951	83	3099.7978044
1	6004	84	3153.92716188
1	6016	85	3208.04716188
1	6162	86	3262.16716188
1	6376	87	3316.29651936
1	6395	88	3370.41651936
1	6411	89	3424.53651936
1	6597	90	3478.65651936
1	6663	91	3493.4327803131
1	6715	92	3496.396249896
1	6814	93	3550.516249896
1	6894	94	3604.645607376
1	6934	95	3658.765607376
1	6951	96	3712.885607376
1	7050	97	3747.8674174731
1	7116	98	3747.9334174731
1	7168	99	3784.501826424
1	7267	100	3838.621826424
1	7333	101	3865.1107243131
1	7385	102	3880.14531696
1	7484	103	3906.6268112331
1	7550	104	3906.6928112331
1	7602	105	3936.626416008
1	7701	106	3986.9658323691
1	7845	107	3987.0318323691
1	7871	108	4023.377755056
1	7930	109	4077.497755056
1	8073	110	4131.617755056
1	8153	111	4185.747112536
1	8193	112	4239.867112536
1	8210	113	4293.987112536
1	8309	114	4348.107112536
1	8373	115	4378.4822768091
1	8429	116	4378.819803072
1	8441	117	4432.939803072
1	8517	118	4485.6085144011
1	8611	119	4485.6745144011
1	8630	120	4517.52898212
1	8762	121	4546.4880955371
1	8922	122	4546.5540955371
1	8975	123	4578.334401168
1	8987	124	4632.454401168
1	9046	125	4686.574401168
1	9145	126	4740.694401168
1	9253	127	4790.0167897371
1	9288	128	4790.0827897371
1	9321	129	4819.040611704
1	9381	130	4873.160611704
1	9437	131	4927.280611704
1	9638	132	4981.409969184
1	9650	133	5035.529969184
1	9666	134	5089.649969184
1	9765	135	5143.769969184
1	9918	136	5173.0465399611
1	9930	137	5173.1125399611
1	9982	138	5211.30537972
1	10081	139	5265.42537972
1	10161	140	5319.5547372
1	10201	141	5373.6747372
1	10261	142	5427.7947372
1	10402	143	5457.8989828251
1	10468	144	5457.9649828251
1	10487	145	5486.681507736
1	10546	146	5540.801507736
1	10661	147	5593.2680571051
1	10755	148	5593.3340571051
1	10774	149	5610.255566784
1	10906	150	5664.375566784
1	11012	151	5665.1060039451
1	11045	152	5669.14233732
1	11062	153	5723.26233732
1	11229	154	5748.5300472411
1	11241	155	5748.5960472411
1	11383	156	5786.473427856
1	11439	157	5786.5487305371
1	11491	158	5789.078038392
1	11600	159	5843.198038392
1	11656	160	5843.3475031611
1	11751	161	5860.937768928
1	11861	162	5878.4586757851
1	11878	163	5878.5246757851
1	11968	164	5928.473179464
1	12078	165	5935.2574484091
1	12097	166	5935.3234484091
1	12229	167	5944.3411353291
1	12295	168	5944.4071353291
1	12390	169	5987.558889048
1	12446	170	6041.678889048
1	12565	171	6095.808246528
1	12591	172	6149.928246528
1	12608	173	6204.048246528
1	12707	174	6258.168246528
1	12773	175	6268.0165124091
1	12825	176	6269.421497064
1	12924	177	6318.1812393291
1	12990	178	6318.2472393291
1	13042	179	6351.848516112
1	13097	180	6405.968516112
1	13241	181	6435.4245461691
1	13288	182	6435.4905461691
1	13307	183	6486.476886648
1	13367	184	6540.596886648
1	13503	185	6542.6167837611
1	13604	186	6545.120145696
1	13616	187	6599.240145696
1	13675	188	6653.360145696
1	13731	189	6707.480145696
1	13830	190	6761.600145696
1	13910	191	6777.4968379611
1	13950	192	6798.799316232
1	13967	193	6852.919316232
1	14118	194	6869.4879555531
1	14146	195	6869.5539555531
1	14186	196	6920.21121528
1	14290	197	6954.8306473611
1	14406	198	6954.8966473611
1	14460	199	6989.665274328
1	14472	200	7043.785274328
1	14531	201	7097.905274328
1	14630	202	7152.025274328
1	14762	203	7178.8183358571
1	14837	204	7182.494453376
1	14856	205	7236.614453376
1	14915	206	7290.734453376
1	15014	207	7344.854453376
1	15122	208	7385.5243100571
1	15157	209	7385.5903100571
1	15190	210	7418.876343912
1	15250	211	7472.996343912
1	15410	212	7527.116343912
1	15457	213	7581.245701392
1	15476	214	7635.365701392
1	15579	215	7689.485701392
1	15678	216	7743.605701392
1	15742	217	7772.8783802811
1	15798	218	7785.129191928
1	15810	219	7839.249191928
1	15914	220	7893.369191928
1	15980	221	7908.2602635771
1	16032	222	7926.244042464
1	16131	223	7980.364042464
1	16211	224	7991.0049562011
1	16251	225	8013.238893
1	16268	226	8067.358893
1	16421	227	8085.1582337931
1	16433	228	8085.2242337931
1	16485	229	8134.650792048
1	16636	230	8174.2274606331
1	16664	231	8174.2934606331
1	16704	232	8212.997002584
1	16721	233	8267.117002584
1	16872	234	8321.237002584
1	16900	235	8375.366360064
1	16940	236	8429.486360064
1	17000	237	8483.606360064
1	17204	238	8537.735717544
1	17257	239	8591.855717544
1	17269	240	8645.975717544
1	17328	241	8700.095717544
1	17427	242	8754.215717544
1	17537	243	8780.9865610971
1	17556	244	8781.0525610971
1	17644	245	8817.42680808
1	17768	246	8831.2988537211
1	17787	247	8831.3648537211
1	17868	248	8880.637898616
1	18018	249	8934.767256096
1	18037	250	8988.887256096
1	18068	251	9043.007256096
1	18215	252	9097.127256096
1	18311	253	9151.256613576
1	18337	254	9205.376613576
1	18353	255	9259.496613576
1	18495	256	9313.686796656
1	18597	257	9336.2930515611
1	18732	258	9339.831655704
1	18744	259	9393.951655704
1	18803	260	9448.071655704
1	18902	261	9502.191655704
1	19026	262	9556.321013184
1	19045	263	9610.441013184
1	19083	264	9664.561013184
1	19250	265	9718.690370664
1	19262	266	9772.810370664
1	19307	267	9826.930370664
1	19406	268	9875.6496805371
1	19512	269	9875.7156805371
1	19545	270	9924.492509712
1	19562	271	9978.612509712
1	19661	272	10032.732509712
1	19767	273	10036.881538049
1	19800	274	10067.769520248
1	19817	275	10121.889520248
1	19916	276	10176.009520248
1	19996	277	10200.371501345
1	20036	278	10215.370850784
1	20053	279	10269.490850784
1	20228	280	10323.610850784
1	20296	281	10377.740208264
1	20322	282	10431.860208264
1	20338	283	10485.980208264
1	20437	284	10540.100208264
1	20536	285	10594.220208264
1	20602	286	10605.022851569
1	20654	287	10611.9599388
1	20753	288	10666.0799388
1	20833	289	10683.443224193
1	20873	290	10703.279109336
1	20890	291	10757.399109336
1	21037	292	10762.461381785
1	21133	293	10762.527381785
1	21159	294	10813.880208384
1	21218	295	10868.000208384
1	21361	296	10922.120208384
1	21427	297	10934.572795985
1	21479	298	10935.53561892
1	21534	299	10989.65561892
1	21658	300	11008.668848609
1	21677	301	11008.734848609
1	21802	302	11048.542389456
1	21868	303	11051.011851905
1	21920	304	11051.146999992
1	22019	305	11105.266999992
1	22099	306	11116.459264529
1	22139	307	11118.682410528
1	22156	308	11172.802410528
1	22211	309	11226.922410528
1	22339	310	11232.300142121
1	22380	311	11257.391589576
1	22406	312	11311.511589576
1	22510	313	11365.631589576
1	22590	314	11419.760947056
1	22630	315	11473.880947056
1	22734	316	11513.198104169
1	22840	317	11513.264104169
1	22873	318	11541.172846104
1	22933	319	11595.292846104
1	23041	320	11649.412846104
1	23076	321	11703.542203584
1	23109	322	11757.662203584
1	23169	323	11811.782203584
1	23279	324	11850.525791921
1	23298	325	11850.591791921
1	23386	326	11879.31761412
1	23514	327	11933.43761412
1	23555	328	11987.5669716
1	23581	329	12041.6869716
1	23641	330	12095.8069716
1	23697	331	12149.9269716
1	23768	332	12174.363114785
1	23823	333	12187.126142136
1	23835	334	12241.246142136
1	23939	335	12295.366142136
1	24003	336	12327.042278081
1	24065	337	12328.240992672
1	24077	338	12382.360992672
1	24137	339	12436.480992672
1	24245	340	12473.234961377
1	24280	341	12473.300961377
1	24313	342	12501.854243208
1	24373	343	12555.974243208
1	24501	344	12610.094243208
1	24542	345	12664.223600688
1	24568	346	12718.343600688
1	24672	347	12772.463600688
1	24738	348	12784.778674913
1	24833	349	12813.987091224
1	24889	350	12868.107091224
1	25046	351	12922.236448704
1	25065	352	12976.356448704
1	25081	353	13030.476448704
1	25180	354	13084.596448704
1	25279	355	13138.716448704
1	25373	356	13141.117154465
1	25406	357	13165.10481924
1	25466	358	13219.22481924
1	25576	359	13246.162797761
1	25595	360	13246.228797761
1	25727	361	13293.246709776
1	25787	362	13347.366709776
1	25909	363	13401.496067256
1	25921	364	13455.616067256
1	26067	365	13509.736067256
1	26171	366	13563.856067256
1	26274	367	13617.985424736
1	26293	368	13672.105424736
1	26309	369	13726.225424736
1	26408	370	13780.345424736
1	26507	371	13834.465424736
1	26587	372	13845.824824241
1	26627	373	13863.015955272
1	26703	374	13917.135955272
1	26797	375	13957.356947537
1	26816	376	13957.422947537
1	26904	377	14010.617285808
1	26960	378	14064.737285808
1	27073	379	14118.866643288
1	27099	380	14172.986643288
1	27159	381	14227.106643288
1	27269	382	14237.885070401
1	27288	383	14237.951070401
1	27376	384	14288.155573824
1	27500	385	14318.467603025
1	27519	386	14318.533603025
1	27557	387	14366.50178436
1	27656	388	14395.323600617
1	27736	389	14395.389600617
1	27776	390	14438.118003408
1	27793	391	14492.238003408
1	27892	392	14536.948452425
1	28008	393	14537.014452425
1	28062	394	14570.340702456
1	28074	395	14624.460702456
1	28177	396	14678.580702456
1	28232	397	14732.700702456
1	28340	398	14784.801466625
1	28375	399	14784.867466625
1	28408	400	14819.695552992
1	28468	401	14873.815552992
1	28524	402	14927.935552992
1	28611	403	14937.546629921
1	28644	404	14965.134723528
1	28661	405	15019.254723528
1	28814	406	15053.403073217
1	28826	407	15053.469073217
1	28921	408	15075.979334064
1	29029	409	15130.099334064
1	29064	410	15184.228691544
1	29097	411	15238.348691544
1	29157	412	15292.468691544
1	29215	413	15323.038830377
1	29364	414	15331.586510592
1	29383	415	15385.706510592
1	29399	416	15439.826510592
1	29541	417	15493.946510592
1	29677	418	15548.066510592
1	29798	419	15602.195868072
1	29810	420	15656.315868072
1	29869	421	15710.435868072
1	29968	422	15764.555868072
1	30078	423	15768.662465801
1	30097	424	15782.05208712
1	30229	425	15836.17208712
1	30335	426	15890.3014446
1	30368	427	15944.4214446
1	30385	428	15998.5414446
1	30484	429	16052.6614446
1	30548	430	16074.974562881
1	30604	431	16083.374135136
1	30616	432	16137.494135136
1	30834	433	16191.623492616
1	30914	434	16245.743492616
1	30933	435	16299.863492616
1	30992	436	16353.983492616
1	31091	437	16408.103492616
1	31147	438	16462.223492616
1	31266	439	16468.815113105
1	31292	440	16503.746983152
1	31309	441	16557.866983152
1	31462	442	16580.347236401
1	31474	443	16580.413236401
1	31569	444	16621.078073688
1	31679	445	16641.470329025
1	31698	446	16641.536329025
1	31786	447	16686.451324224
1	31842	448	16740.571324224
1	31993	449	16794.700681704
1	32012	450	16848.820681704
1	32071	451	16902.940681704
1	32170	452	16957.060681704
1	32340	453	17011.190039184
1	32427	454	17065.310039184
1	32439	455	17119.430039184
1	32455	456	17173.550039184
1	32597	457	17227.740222264
1	32707	458	17252.013338585
1	32726	459	17252.079338585
1	32858	460	17299.5999528
1	32924	461	17319.622911209
1	32976	462	17336.799123336
1	33223	463	17341.679558129
1	33269	464	17341.745558129
1	33288	465	17395.442382384
1	33391	466	17449.562382384
1	33490	467	17503.682382384
1	33570	468	17515.953132329
1	33610	469	17523.58427292
1	33714	470	17577.70427292
1	33842	471	17631.82427292
1	33927	472	17685.9536304
1	33939	473	17740.0736304
1	33998	474	17794.1936304
1	34097	475	17848.3136304
1	34153	476	17902.4336304
1	34304	477	17903.307202553
1	34323	478	17946.119280936
1	34339	479	18000.239280936
1	34394	480	18054.359280936
1	34537	481	18108.479280936
1	34601	482	18162.599280936
1	34657	483	18216.728638416
1	34669	484	18270.848638416
1	34773	485	18324.968638416
1	34889	486	18379.097995896
1	34943	487	18433.217995896
1	34955	488	18487.337995896
1	35014	489	18541.457995896
1	35113	490	18595.648178976
1	35317	491	18649.768178976
1	35370	492	18703.897536456
1	35382	493	18758.017536456
1	35528	494	18812.137536456
1	35638	495	18842.177349713
1	35657	496	18842.243349713
1	35789	497	18873.186466992
1	35855	498	18898.976122337
1	35907	499	18912.547797528
1	36006	500	18966.667797528
1	36086	501	18973.072174961
1	36126	502	18995.218328064
1	36186	503	19049.338328064
1	36242	504	19103.458328064
1	36361	505	19106.291898257
1	36387	506	19136.3331786
1	36404	507	19190.4531786
1	36503	508	19244.5731786
1	36565	509	19298.6931786
1	36642	510	19352.82253608
1	36654	511	19406.94253608
1	36671	512	19461.06253608
1	36770	513	19515.18253608
1	36834	514	19543.306891793
1	36890	515	19556.706026616
1	36902	516	19610.826026616
1	36962	517	19664.946026616
1	37018	518	19698.066649385
1	37111	519	19708.388165664
1	37144	520	19762.508165664
1	37161	521	19816.628165664
1	37260	522	19870.748165664
1	37324	523	19898.217386897
1	37380	524	19907.9473362
1	37392	525	19962.0673362
1	37496	526	20016.1873362
1	37560	527	20053.058710193
1	37616	528	20053.386506736
1	37628	529	20107.506506736
1	37645	530	20161.626506736
1	37790	531	20215.746506736
1	37914	532	20269.875864216
1	37933	533	20323.995864216
1	37992	534	20378.115864216
1	38091	535	20432.235864216
1	38201	536	20481.493820417
1	38220	537	20481.559820417
1	38265	538	20514.906394752
1	38364	539	20569.026394752
1	38430	540	20581.601793041
1	38482	541	20604.063405288
1	38627	542	20658.183405288
1	38755	543	20712.312762768
1	38774	544	20766.432762768
1	38877	545	20820.622945848
1	38976	546	20874.742945848
1	39042	547	20877.403975673
1	39137	548	20918.428596384
1	39247	549	20929.812428297
1	39266	550	20929.878428297
1	39354	551	20975.15320692
1	39478	552	21008.232800921
1	39497	553	21008.298800921
1	39535	554	21051.337257456
1	39634	555	21085.088798513
1	39714	556	21085.154798513
1	39754	557	21127.277796504
1	39858	558	21181.397796504
1	39938	559	21187.876336025
1	39978	560	21194.81320704
1	39995	561	21248.93320704
1	40208	562	21264.732333617
1	40288	563	21264.798333617
1	40307	564	21314.062946088
1	40366	565	21368.182946088
1	40509	566	21412.912422113
1	40589	567	21412.978422113
1	40629	568	21439.799165136
1	40646	569	21493.919165136
1	40745	570	21548.039165136
1	40825	571	21565.495639625
1	40865	572	21578.751855672
1	40882	573	21632.871855672
1	40953	574	21685.594837217
1	41047	575	21685.660837217
1	41066	576	21726.10967472
1	41198	577	21780.22967472
1	41278	578	21792.027344057
1	41318	579	21806.618045256
1	41422	580	21860.738045256
1	41506	581	21875.451387353
1	41561	582	21880.639935792
1	41573	583	21934.759935792
1	41633	584	21988.879935792
1	41743	585	22015.157590649
1	41762	586	22015.223590649
1	41850	587	22052.091026328
1	41906	588	22106.211026328
1	42119	589	22160.340383808
1	42131	590	22214.460383808
1	42147	591	22268.580383808
1	42202	592	22322.700383808
1	42317	593	22376.820383808
1	42473	594	22430.949741288
1	42492	595	22485.069741288
1	42516	596	22539.189741288
1	42615	597	22593.309741288
1	42695	598	22647.439098768
1	42735	599	22701.559098768
1	42811	600	22755.679098768
1	42945	601	22793.008850681
1	42964	602	22793.074850681
1	42995	603	22846.998269304
1	43050	604	22901.118269304
1	43238	605	22902.363248273
1	43257	606	22918.614488352
1	43280	607	22972.734488352
1	43379	608	23026.854488352
1	43524	609	23057.029816769
1	43672	610	23057.095816769
1	43691	611	23104.9571874
1	43707	612	23159.0771874
1	43762	613	23213.1971874
1	43861	614	23267.3171874
1	43985	615	23283.179665265
1	44004	616	23293.462046448
1	44042	617	23347.582046448
1	44113	618	23401.702046448
1	44207	619	23414.075282777
1	44226	620	23414.141282777
1	44314	621	23467.075296984
1	44424	622	23509.792935401
1	44443	623	23509.858935401
1	44575	624	23547.58366752
1	44641	625	23553.618748025
1	44693	626	23558.836918056
1	44792	627	23612.956918056
1	44880	628	23667.076918056
1	44962	629	23721.206275536
1	44974	630	23775.326275536
1	45077	631	23829.446275536
1	45224	632	23883.566275536
1	45320	633	23937.695633016
1	45346	634	23991.815633016
1	45405	635	24045.935633016
1	45504	636	24100.055633016
1	45614	637	24148.890454505
1	45633	638	24148.956454505
1	45678	639	24171.915363552
1	45777	640	24216.418461425
1	45857	641	24216.484461425
1	45897	642	24250.0180626
1	45957	643	24304.1380626
1	46067	644	24308.313633233
1	46086	645	24332.445081648
1	46174	646	24386.565081648
1	46298	647	24440.694439128
1	46317	648	24494.814439128
1	46355	649	24548.934439128
1	46454	650	24603.054439128
1	46542	651	24657.183796608
1	46624	652	24711.303796608
1	46636	653	24765.423796608
1	46695	654	24819.543796608
1	46794	655	24873.733979688
1	46904	656	24879.559494617
1	46923	657	24889.068038736
1	47055	658	24943.188038736
1	47161	659	24947.007121457
1	47194	660	24960.927769272
1	47211	661	25015.047769272
1	47310	662	25069.167769272
1	47504	663	25123.297126752
1	47523	664	25177.417126752
1	47539	665	25231.537126752
1	47638	666	25285.657126752
1	47789	667	25332.051465977
1	47817	668	25332.117465977
1	47857	669	25352.9490258
1	47961	670	25407.0690258
1	48135	671	25461.19838328
1	48154	672	25515.31838328
1	48213	673	25569.43838328
1	48312	674	25623.62856636
1	48440	675	25665.193773497
1	48481	676	25665.259773497
1	48507	677	25686.839656896
1	48567	678	25740.959656896
1	48699	679	25795.089014376
1	48758	680	25849.209014376
1	48777	681	25903.329014376
1	48837	682	25957.449014376
1	48973	683	26011.578371856
1	49006	684	26065.698371856
1	49032	685	26119.818371856
1	49136	686	26139.778791569
1	49216	687	26139.844791569
1	49256	688	26187.110270904
1	49273	689	26241.230270904
1	49372	690	26295.350270904
1	49436	691	26331.280889081
1	49492	692	26336.87376144
1	49504	693	26390.99376144
1	49564	694	26445.11376144
1	49670	695	26453.608246673
1	49733	696	26469.096460488
1	49759	697	26523.216460488
1	49863	698	26577.336460488
1	49943	699	26580.179544185
1	49983	700	26588.589711024
1	50043	701	26642.709711024
1	50099	702	26696.829711024
1	50276	703	26750.959068504
1	50288	704	26805.079068504
1	50304	705	26859.199068504
1	50403	706	26913.389251584
1	50474	707	26967.509251584
1	50568	708	26982.738917489
1	50587	709	26982.804917489
1	50719	710	27035.04466212
1	50785	711	27046.024170113
1	50837	712	27052.784392656
1	50936	713	27106.904392656
1	51002	714	27130.931022737
1	51054	715	27131.130603192
1	51207	716	27168.122789657
1	51219	717	27168.188789657
1	51271	718	27196.26034224
1	51370	719	27235.488850793
1	51450	720	27235.554850793
1	51490	721	27270.038721288
1	51507	722	27324.158721288
1	51606	723	27378.278721288
1	51672	724	27398.882868305
1	51767	725	27413.315731824
1	51899	726	27467.435731824
1	51974	727	27521.565089304
1	51993	728	27575.685089304
1	52052	729	27629.805089304
1	52271	730	27677.251587857
1	52339	731	27677.317587857
1	52365	732	27697.34049984
1	52381	733	27751.46049984
1	52567	734	27805.58049984
1	52647	735	27859.70985732
1	52687	736	27913.82985732
1	52704	737	27967.94985732
1	52803	738	28022.06985732
1	52883	739	28045.146218081
1	52923	740	28048.458227856
1	52940	741	28102.578227856
1	53011	742	28156.698227856
1	53097	743	28210.818227856
1	53228	744	28264.947585336
1	53240	745	28319.067585336
1	53299	746	28373.187585336
1	53398	747	28427.377768416
1	53506	748	28481.497768416
1	53541	749	28535.627125896
1	53574	750	28589.747125896
1	53678	751	28643.867125896
1	53838	752	28697.987125896
1	53891	753	28752.116483376
1	53903	754	28806.236483376
1	53962	755	28860.356483376
1	54061	756	28914.476483376
1	54171	757	28960.163848553
1	54190	758	28960.229848553
1	54322	759	29007.957813912
1	54428	760	29014.800461177
1	54461	761	29025.697544448
1	54521	762	29079.817544448
1	54631	763	29132.819064473
1	54650	764	29132.885064473
1	54738	765	29177.623194984
1	54844	766	29231.743194984
1	54913	767	29285.872552464
1	54939	768	29339.992552464
1	54956	769	29394.112552464
1	55055	770	29434.887221633
1	55135	771	29434.953221633
1	55175	772	29485.188211512
1	55235	773	29539.308211512
1	55345	774	29578.755799145
1	55364	775	29578.821799145
1	55452	776	29613.330102048
1	55580	777	29652.851851769
1	55621	778	29652.917851769
1	55647	779	29687.351992584
1	55751	780	29741.471992584
1	55831	781	29753.639175065
1	55871	782	29767.86036312
1	55888	783	29821.98036312
1	56037	784	29876.10036312
1	56093	785	29930.2297206
1	56126	786	29984.3497206
1	56143	787	30038.4697206
1	56198	788	30092.5897206
1	56330	789	30146.7097206
1	56393	790	30200.83907808
1	56412	791	30254.95907808
1	56429	792	30309.07907808
1	56528	793	30363.19907808
1	56634	794	30371.140318841
1	56667	795	30391.749608616
1	56684	796	30445.869608616
1	56783	797	30489.077356433
1	56909	798	30489.143356433
1	56976	799	30536.945267664
1	56988	800	30591.065267664
1	57047	801	30645.185267664
1	57103	802	30699.305267664
1	57202	803	30753.425267664
1	57308	804	30807.554625144
1	57341	805	30861.674625144
1	57358	806	30915.794625144
1	57457	807	30969.914625144
1	57563	808	31024.043982624
1	57596	809	31078.163982624
1	57656	810	31132.283982624
1	57780	811	31143.226465409
1	57799	812	31160.591001672
1	57837	813	31214.711001672
1	57936	814	31268.831001672
1	58016	815	31276.284242921
1	58056	816	31284.408572208
1	58116	817	31338.528572208
1	58226	818	31364.032606217
1	58245	819	31364.098606217
1	58290	820	31399.577502744
1	58439	821	31453.697502744
1	58495	822	31507.826860224
1	58528	823	31561.946860224
1	58545	824	31616.066860224
1	58696	825	31653.209369081
1	58724	826	31653.275369081
1	58764	827	31679.27795076
1	58824	828	31733.39795076
1	58880	829	31771.212406673
1	58967	830	31772.515769808
1	59000	831	31826.635769808
1	59017	832	31880.755769808
1	59170	833	31917.161578481
1	59182	834	31917.227578481
1	59234	835	31945.885508856
1	59333	836	32000.005508856
1	59413	837	32010.621125321
1	59453	838	32030.718199392
1	59470	839	32084.838199392
1	59569	840	32138.958199392
1	59763	841	32193.087556872
1	59782	842	32247.207556872
1	59798	843	32301.327556872
1	59853	844	32355.447556872
1	59952	845	32409.567556872
1	60080	846	32463.696914352
1	60121	847	32517.816914352
1	60147	848	32571.936914352
1	60207	849	32626.056914352
1	60311	850	32680.176914352
1	60414	851	32734.306271832
1	60433	852	32788.426271832
1	60492	853	32842.546271832
1	60591	854	32896.666271832
1	60647	855	32950.786271832
1	60798	856	33004.915629312
1	60817	857	33059.035629312
1	60833	858	33113.155629312
1	60932	859	33167.275629312
1	61003	860	33221.395629312
1	61097	861	33264.093159641
1	61116	862	33264.159159641
1	61248	863	33317.039119848
1	61312	864	33371.159119848
1	61368	865	33425.288477328
1	61380	866	33479.408477328
1	61440	867	33533.528477328
1	61600	868	33587.648477328
1	61647	869	33641.777834808
1	61666	870	33695.897834808
1	61769	871	33750.017834808
1	61840	872	33804.137834808
1	62062	873	33858.267192288
1	62081	874	33912.387192288
1	62097	875	33966.507192288
1	62196	876	34020.697375368
1	62267	877	34074.817375368
1	62379	878	34128.937375368
1	62426	879	34183.066732848
1	62452	880	34237.186732848
1	62512	881	34291.306732848
1	62640	882	34345.436090328
1	62681	883	34399.556090328
1	62707	884	34453.676090328
1	62767	885	34507.796090328
1	62891	886	34528.526939921
1	62910	887	34528.592939921
1	62991	888	34577.493660864
1	63105	889	34631.613660864
1	63160	890	34685.743018344
1	63186	891	34739.863018344
1	63246	892	34793.983018344
1	63356	893	34842.166813457
1	63375	894	34842.232813457
1	63463	895	34889.62650888
1	63573	896	34922.749346081
1	63592	897	34922.815346081
1	63637	898	34957.161919416
1	63788	899	34994.683238705
1	63816	900	34994.749238705
1	63856	901	35037.670289952
1	63916	902	35091.790289952
1	64022	903	35145.910289952
1	64073	904	35200.039647432
1	64099	905	35254.159647432
1	64203	906	35308.279647432
1	64329	907	35362.399647432
1	64416	908	35416.529004912
1	64428	909	35470.649004912
1	64487	910	35524.769004912
1	64680	911	35568.943939169
1	64736	912	35569.009939169
1	64769	913	35583.655775448
1	64873	914	35628.502656761
1	64939	915	35628.568656761
1	64991	916	35659.596314496
1	65144	917	35691.625963601
1	65156	918	35691.691963601
1	65208	919	35720.645245032
1	65421	920	35774.774602512
1	65501	921	35828.894602512
1	65520	922	35883.014602512
1	65579	923	35937.134602512
1	65678	924	35991.254602512
1	65806	925	36013.369883153
1	65847	926	36013.435883153
1	65873	927	36050.141373048
1	66031	928	36098.956086449
1	66043	929	36099.022086449
1	66095	930	36113.352463584
1	66150	931	36167.472463584
1	66300	932	36196.901899073
1	66319	933	36196.967899073
1	66350	934	36245.81867412
1	66449	935	36299.93867412
1	66515	936	36302.013542369
1	66610	937	36334.975684656
1	66780	938	36389.095684656
1	66867	939	36443.225042136
1	66879	940	36497.345042136
1	66982	941	36551.465042136
1	67081	942	36605.585042136
1	67147	943	36615.042821921
1	67258	944	36629.811252672
1	67352	945	36643.667514545
1	67371	946	36643.733514545
1	67459	947	36697.346663208
1	67587	948	36732.898687169
1	67628	949	36732.964687169
1	67654	950	36762.719913744
1	67758	951	36816.839913744
1	67864	952	36870.969271224
1	67897	953	36925.089271224
1	67914	954	36979.209271224
1	68063	955	37024.916960705
1	68119	956	37024.982960705
1	68152	957	37046.74468176
1	68212	958	37100.86468176
1	68314	959	37127.784878297
1	68469	960	37129.171700808
1	68481	961	37183.291700808
1	68540	962	37237.411700808
1	68639	963	37291.531700808
1	68747	964	37332.328692497
1	68782	965	37332.394692497
1	68815	966	37380.688711344
1	68875	967	37434.808711344
1	68931	968	37488.928711344
1	69018	969	37543.058068824
1	69051	970	37597.178068824
1	69111	971	37651.298068824
1	69221	972	37680.629126033
1	69240	973	37680.695126033
1	69372	974	37712.34699936
1	69438	975	37730.941418657
1	69533	976	37738.735369896
1	69643	977	37755.160225577
1	69662	978	37758.393748944
1	69794	979	37812.513748944
1	69860	980	37818.283532417
1	69912	981	37838.90211948
1	70143	982	37866.367665041
1	70155	983	37866.433665041
1	70185	984	37899.951050016
1	70240	985	37954.071050016
1	70339	986	38008.191050016
1	70395	987	38062.311050016
1	70596	988	38116.440407496
1	70608	989	38170.560407496
1	70667	990	38224.680407496
1	70810	991	38278.800407496
1	70916	992	38332.929764976
1	70949	993	38387.049764976
1	70966	994	38441.169764976
1	71119	995	38484.006322193
1	71131	996	38484.072322193
1	71226	997	38504.380855512
1	71336	998	38542.967254817
1	71355	999	38543.033254817
1	71400	1000	38569.754106048
1	71551	1001	38623.874106048
1	71579	1002	38678.003463528
1	71619	1003	38732.123463528
1	71636	1004	38786.243463528
1	71811	1005	38840.363463528
1	71879	1006	38894.492821008
1	71905	1007	38948.612821008
1	72008	1008	39002.732821008
1	72107	1009	39056.852821008
1	72173	1010	39077.629724609
1	72225	1011	39089.727671544
1	72324	1012	39143.847671544
1	72390	1013	39169.023057233
1	72442	1014	39174.56036208
1	72635	1015	39197.647749857
1	72647	1016	39197.713749857
1	72685	1017	39231.284972616
1	72852	1018	39263.774513153
1	72864	1019	39263.840513153
1	72909	1020	39294.496063152
1	73008	1021	39348.616063152
1	73092	1022	39402.745420632
1	73153	1023	39456.865420632
1	73165	1024	39510.985420632
1	73225	1025	39565.105420632
1	73281	1026	39583.885300985
1	73374	1027	39604.22323968