file 3529792 1311705960                                         
version 2
run Alt-0-20110726-13:45:49-5133
attr configname Alt
attr datetime 20110726-13:45:49
attr experiment Alt
attr inifile /home/reu/Desktop/omnetpp-4.1/samples/myWSN/omnetpp.ini
attr iterationvars ""
attr iterationvars2 $repetition=0
attr measurement ""
attr network MyWSN2
attr processid 5133
attr repetition 0
attr replication #0
attr resultdir results
attr runnumber 0
attr seedset 0

vector 1  MyWSN2.node[0].appl  "Total Power"  ETV
vector 8  MyWSN2.node[1].appl  "Total Power"  ETV
vector 15  MyWSN2.node[2].appl  "Total Power"  ETV
vector 22  MyWSN2.node[3].appl  "Total Power"  ETV
vector 29  MyWSN2.node[4].appl  "Total Power"  ETV
vector 36  MyWSN2.baseStation.appl  "Total Power"  ETV
vector 42  MyWSN2.baseStation.nic.phy  "Total packets sent"  ETV
vector 43  MyWSN2.baseStation.nic.phy  "Total bytes sent"  ETV
vector 12  MyWSN2.node[1].nic.phy  "Total packets sent"  ETV
vector 13  MyWSN2.node[1].nic.phy  "Total bytes sent"  ETV
vector 19  MyWSN2.node[2].nic.phy  "Total packets sent"  ETV
vector 20  MyWSN2.node[2].nic.phy  "Total bytes sent"  ETV
vector 26  MyWSN2.node[3].nic.phy  "Total packets sent"  ETV
vector 27  MyWSN2.node[3].nic.phy  "Total bytes sent"  ETV
vector 5  MyWSN2.node[0].nic.phy  "Total packets sent"  ETV
vector 6  MyWSN2.node[0].nic.phy  "Total bytes sent"  ETV
vector 33  MyWSN2.node[4].nic.phy  "Total packets sent"  ETV
vector 34  MyWSN2.node[4].nic.phy  "Total bytes sent"  ETV
vector 37  MyWSN2.baseStation.appl  "Power Per Round"  ETV
vector 2  MyWSN2.node[0].appl  "Power Per Round"  ETV
vector 9  MyWSN2.node[1].appl  "Power Per Round"  ETV
vector 16  MyWSN2.node[2].appl  "Power Per Round"  ETV
vector 23  MyWSN2.node[3].appl  "Power Per Round"  ETV
vector 30  MyWSN2.node[4].appl  "Power Per Round"  ETV
vector 38  MyWSN2.baseStation.appl  "Num of Right Pkts"  ETV
vector 39  MyWSN2.baseStation.appl  "Amount of Bytes for Right Pkts"  ETV
1	1895 295897 1 709995 1 10000 10000 54.12 370270.18595027 1855204281.7816 4.5829020678747e+14
2	297792 114597 365 709840 7.988676099772 9997.854916099772 2711 8.9297516880033 432.35251631966 370253.48643055 64325433.092358
5	412389 42676 245 709883 5.181912099772 9998.016688099772 1380 1 1380 952890 876976430
6	455065 46344 245 709883 5.181912099772 9998.016688099772 1380 78 831957 571789590 3.1700925412983e+14
8	501409 295818 2 709977 1 9999 9999 54.12 371500.09987924 1855994661.6545 4.5882941163339e+14
9	797227 114626 370 709848 7.988676099772 9997.854916099772 2711 13.259351688001 432.35251631966 371450.11689415 64878270.90635
12	911853 42477 113 708737 4.741912099772 9981.094140099772 1332 1 1332 887778 788642790
13	954330 46064 113 708737 4.741912099772 9981.094140099772 1332 78 770469 519586542 2.7098525329587e+14
15	1000394 305827 3 709978 1 9999 9999 54.12 374592.52979739 1872759058.4614 4.6689298165704e+14
16	1306221 117310 378 709853 7.988676099772 9997.854916099772 2711 8.9297516879888 432.35251631966 374542.5468123 65754291.393851
19	1423531 44004 153 709538 4.941912099772 9992.804664099772 1379 1 1379 951510 875072030
20	1467535 47665 153 709538 4.941912099772 9992.804664099772 1379 78 801096 550243713 2.9408420549438e+14
22	1515200 305844 4 709979 1 9999 9999 54.12 369806.41536759 1847321502.0297 4.5468946745109e+14
23	1821044 117312 383 709858 7.988676099772 9997.854916099772 2711 8.9297516880033 432.35251631966 369756.43238251 63859841.772906
26	1938356 43083 193 709442 4.981912099772 9992.241376099772 1351 1 1351 913276 822861676
27	1981439 46709 193 709442 4.981912099772 9992.241376099772 1351 78 821148 555432723 3.032991889795e+14
29	2028148 305925 5 709980 1 9999 9999 54.12 370202.27951425 1849271182.4892 4.5522749179242e+14
30	2334073 117315 388 709863 7.988676099772 9997.854916099772 2711 8.9297516880033 432.35251631966 370152.29652916 64456168.457336
33	2451388 43398 285 708989 5.261912099772 9985.946064099772 1360 1 1360 925480 839410360
34	2494786 47022 285 708989 5.261912099772 9985.946064099772 1360 78 813777 553309080 3.0017234281212e+14
36	2541808 303976 6 709981 1 9999 9999 54.12 541188.46698048 2705941990.198 9.7633182141767e+14
37	2845784 117140 344 709811 7.264408099772 9997.570648099772 2711 114.82337591998 393.15513215966 541111.09573236 113131239.66409
38	2962924 81017 579 709790 11.758248099772 9997.570548099772 2508 1 2508 3146286 5261638954
39	3043941 88566 579 709790 11.758248099772 9997.570548099772 2508 1024 2568192 3221796864 5.5172283278295e+15
42	3132507 192691 58 709927 4.657644099772 9998.773692099772 5920 1 5920 17526160 69175753520
43	3325198 204594 58 709927 4.657644099772 9998.773692099772 5920 78 632553 1872395421 7.89820991061e+14
