file 3424456 1311705974                                         
version 2
run Negative-0-20110726-13:45:58-5367
attr configname Negative
attr datetime 20110726-13:45:58
attr experiment Negative
attr inifile /home/reu/Desktop/omnetpp-4.1/samples/myWSN/omnetpp.ini
attr iterationvars ""
attr iterationvars2 $repetition=0
attr measurement ""
attr network MyWSN
attr processid 5367
attr repetition 0
attr replication #0
attr resultdir results
attr runnumber 0
attr seedset 0

vector 1  MyWSN.node[0].appl  "Total Power"  ETV
vector 8  MyWSN.node[1].appl  "Total Power"  ETV
vector 15  MyWSN.node[2].appl  "Total Power"  ETV
vector 22  MyWSN.node[3].appl  "Total Power"  ETV
vector 29  MyWSN.node[4].appl  "Total Power"  ETV
vector 36  MyWSN.baseStation.appl  "Total Power"  ETV
vector 42  MyWSN.baseStation.nic.phy  "Total packets sent"  ETV
vector 43  MyWSN.baseStation.nic.phy  "Total bytes sent"  ETV
vector 12  MyWSN.node[1].nic.phy  "Total packets sent"  ETV
vector 13  MyWSN.node[1].nic.phy  "Total bytes sent"  ETV
vector 19  MyWSN.node[2].nic.phy  "Total packets sent"  ETV
vector 20  MyWSN.node[2].nic.phy  "Total bytes sent"  ETV
vector 26  MyWSN.node[3].nic.phy  "Total packets sent"  ETV
vector 27  MyWSN.node[3].nic.phy  "Total bytes sent"  ETV
vector 5  MyWSN.node[0].nic.phy  "Total packets sent"  ETV
vector 6  MyWSN.node[0].nic.phy  "Total bytes sent"  ETV
vector 33  MyWSN.node[4].nic.phy  "Total packets sent"  ETV
vector 34  MyWSN.node[4].nic.phy  "Total bytes sent"  ETV
vector 37  MyWSN.baseStation.appl  "Power Per Round"  ETV
vector 2  MyWSN.node[0].appl  "Power Per Round"  ETV
vector 9  MyWSN.node[1].appl  "Power Per Round"  ETV
vector 16  MyWSN.node[2].appl  "Power Per Round"  ETV
vector 23  MyWSN.node[3].appl  "Power Per Round"  ETV
vector 30  MyWSN.node[4].appl  "Power Per Round"  ETV
vector 38  MyWSN.baseStation.appl  "Num of Right Pkts"  ETV
vector 39  MyWSN.baseStation.appl  "Amount of Bytes for Right Pkts"  ETV
1	1883 294743 1 717426 1 10000 10000 54.12 541240.00946001 2706473124.793 9.7661678790484e+14
2	296626 92850 365 717305 7.988676099772 9998.931040099772 2200 141.35732687998 432.35251631966 541182.15735021 137855291.38949
5	389476 44201 245 717249 5.181912099772 9998.691440099772 1429 1 1429 1021735 973713455
6	433677 47903 245 717249 5.181912099772 9998.691440099772 1429 78 621906 441084048 1.8229812771919e+14
8	481580 294511 2 717332 1 9999 9999 54.12 541186.08596709 2705932232.6791 9.7632451346057e+14
9	776091 92899 370 717310 7.988676099772 9998.931040099772 2200 141.35732687998 432.35251631966 541182.35385729 137855490.29163
12	868990 46365 113 717126 4.741912099772 9995.920888099772 1450 1 1450 1051975 1017259825
13	915355 50121 113 717126 4.741912099772 9995.920888099772 1450 78 624867 457117125 1.9133578319314e+14
15	965476 304486 3 717333 1 9999 9999 54.12 541185.81926901 2705930866.7214 9.7632352928074e+14
16	1269962 95051 378 717315 7.988676099772 9998.931040099772 2200 141.35732687998 432.35251631966 541182.08715921 137855280.80577
19	1365013 46530 153 717348 4.941912099772 9999.172812099772 1455 1 1455 1059240 1027815880
20	1411543 50299 153 717348 4.941912099772 9999.172812099772 1455 78 620772 457591095 1.903674908075e+14
22	1461842 304593 4 717334 1 9999 9999 54.12 541187.6580673 2705933131.1441 9.7632698675033e+14
23	1766435 94937 383 717323 7.988676099772 9998.931040099772 2200 141.35732687998 432.35251631966 541183.9259575 137856140.48892
26	1861372 47208 193 717086 4.981912099772 9995.480888099772 1475 1 1475 1088550 1070770350
27	1908580 51013 193 717086 4.981912099772 9995.480888099772 1475 78 649512 476651505 2.056309149262e+14
29	1959593 304428 5 717335 1 9999 9999 54.12 541185.44964261 2705923714.0601 9.7631879516697e+14
30	2264021 94998 388 717328 7.988676099772 9998.931040099772 2200 141.35732687998 432.35251631966 541181.71753281 137855160.97691
33	2359019 45848 285 716621 5.261912099772 9989.376396099772 1434 1 1434 1028895 983966585
34	2404867 49556 285 716621 5.261912099772 9989.376396099772 1434 78 614931 437891373 1.7846856922832e+14
36	2454423 304079 6 717336 1 9999 9999 54.12 541190.06661852 2705949897.323 9.7633756484279e+14
37	2758502 94973 344 717284 7.264408099772 9998.726772099772 2200 134.88301595999 393.15513215966 541175.27415876 137817566.00121
38	2853475 61076 661 717281 12.448800099772 9998.726672099772 1899 1 1899 1804050 2284528650
39	2914551 66798 661 717281 12.448800099772 9998.726672099772 1899 1024 1944576 1847347200 2.3955019137024e+15
42	2981349 214961 58 717391 4.657644099772 9999.419096099772 6600 1 6600 21783300 95853781100
43	3196310 228146 58 717391 4.657644099772 9999.419096099772 6600 78 653400 2156408100 9.393723475983e+14
