version 2
run Negative-0-20110726-13:45:58-5367
attr configname Negative
attr datetime 20110726-13:45:58
attr experiment Negative
attr inifile /home/reu/Desktop/omnetpp-4.1/samples/myWSN/omnetpp.ini
attr iterationvars ""
attr iterationvars2 $repetition=0
attr measurement ""
attr network MyWSN
attr processid 5367
attr repetition 0
attr replication #0
attr resultdir results
attr runnumber 0
attr seedset 0

vector 1  MyWSN.node[0].appl  "Total Power"  ETV
vector 8  MyWSN.node[1].appl  "Total Power"  ETV
vector 15  MyWSN.node[2].appl  "Total Power"  ETV
vector 22  MyWSN.node[3].appl  "Total Power"  ETV
vector 29  MyWSN.node[4].appl  "Total Power"  ETV
vector 36  MyWSN.baseStation.appl  "Total Power"  ETV
vector 42  MyWSN.baseStation.nic.phy  "Total packets sent"  ETV
vector 43  MyWSN.baseStation.nic.phy  "Total bytes sent"  ETV
vector 12  MyWSN.node[1].nic.phy  "Total packets sent"  ETV
vector 13  MyWSN.node[1].nic.phy  "Total bytes sent"  ETV
vector 19  MyWSN.node[2].nic.phy  "Total packets sent"  ETV
vector 20  MyWSN.node[2].nic.phy  "Total bytes sent"  ETV
vector 26  MyWSN.node[3].nic.phy  "Total packets sent"  ETV
vector 27  MyWSN.node[3].nic.phy  "Total bytes sent"  ETV
vector 5  MyWSN.node[0].nic.phy  "Total packets sent"  ETV
vector 6  MyWSN.node[0].nic.phy  "Total bytes sent"  ETV
vector 33  MyWSN.node[4].nic.phy  "Total packets sent"  ETV
vector 34  MyWSN.node[4].nic.phy  "Total bytes sent"  ETV
vector 37  MyWSN.baseStation.appl  "Power Per Round"  ETV
vector 2  MyWSN.node[0].appl  "Power Per Round"  ETV
vector 9  MyWSN.node[1].appl  "Power Per Round"  ETV
vector 16  MyWSN.node[2].appl  "Power Per Round"  ETV
vector 23  MyWSN.node[3].appl  "Power Per Round"  ETV
vector 30  MyWSN.node[4].appl  "Power Per Round"  ETV
vector 38  MyWSN.baseStation.appl  "Num of Right Pkts"  ETV
vector 39  MyWSN.baseStation.appl  "Amount of Bytes for Right Pkts"  ETV
1	1	1	54.12
1	13	2	108.24
1	25	3	162.36
1	37	4	216.48
1	228	5	270.6
1	320	6	324.7253658
1	332	7	378.8453658
1	391	8	432.9653658
1	489	9	487.0853658
1	541	10	541.21472328
1	553	11	595.33472328
1	569	12	649.45472328
1	711	13	703.57472328
1	766	14	757.69472328
1	904	15	811.81472328
1	916	16	865.93472328
1	932	17	920.05472328
1	1117	18	974.17472328
1	1169	19	1028.29472328
1	1185	20	1082.41472328
1	1370	21	1136.53472328
1	1465	22	1190.65472328
1	1477	23	1244.77472328
1	1547	24	1298.89472328
1	1678	25	1353.01472328
1	1779	26	1407.14408076
1	1871	27	1461.26408076
1	1883	28	1515.38408076
1	1982	29	1569.50408076
1	1994	30	1623.62408076
1	2053	31	1677.74408076
1	2197	32	1731.87343824
1	2261	33	1785.99343824
1	2273	34	1840.11343824
1	2332	35	1894.23343824
1	2384	36	1948.35343824
1	2529	37	2002.47343824
1	2581	38	2056.59343824
1	2593	39	2110.71343824
1	2609	40	2164.83343824
1	2751	41	2218.95343824
1	2846	42	2273.07343824
1	2858	43	2327.19343824
1	2961	44	2381.31343824
1	3099	45	2435.43343824
1	3111	46	2489.55343824
1	3127	47	2543.67343824
1	3226	48	2597.79343824
1	3281	49	2651.91343824
1	3419	50	2706.04279572
1	3431	51	2760.16279572
1	3447	52	2814.28279572
1	3546	53	2868.4729788
1	3687	54	2922.5929788
1	3739	55	2976.7129788
1	3751	56	3030.8329788
1	3810	57	3084.9529788
1	3998	58	3139.0729788
1	4066	59	3193.1929788
1	4078	60	3247.3129788
1	4177	61	3301.4329788
1	4189	62	3355.5529788
1	4248	63	3409.6729788
1	4429	64	3463.80233628
1	4441	65	3517.92233628
1	4457	66	3572.04233628
1	4512	67	3626.16233628
1	4611	68	3680.28233628
1	4749	69	3734.40233628
1	4761	70	3788.52233628
1	4777	71	3842.64233628
1	4876	72	3896.76233628
1	4974	73	3950.88233628
1	5069	74	4005.00233628
1	5081	75	4059.12233628
1	5140	76	4113.24233628
1	5196	77	4167.36233628
1	5334	78	4221.49169376
1	5346	79	4275.61169376
1	5416	80	4329.7982849224
1	5547	81	4383.93123432
1	5602	82	4438.05123432
1	5654	83	4492.17123432
1	5666	84	4546.29123432
1	5725	85	4600.41123432
1	5824	86	4654.6014174
1	5922	87	4708.7214174
1	5974	88	4762.8414174
1	5986	89	4816.9614174
1	6045	90	4871.0814174
1	6144	91	4925.2014174
1	6340	92	4979.33077488
1	6352	93	5033.45077488
1	6368	94	5087.57077488
1	6463	95	5141.76095796
1	6479	96	5195.88095796
1	6577	97	5250.00095796
1	6672	98	5304.12095796
1	6684	99	5358.24095796
1	6787	100	5412.36095796
1	6885	101	5466.48095796
1	6940	102	5520.60095796
1	6992	103	5574.72095796
1	7004	104	5628.84095796
1	7107	105	5682.96095796
1	7205	106	5737.08095796
1	7257	107	5791.20095796
1	7273	108	5845.32095796
1	7372	109	5899.44095796
1	7427	110	5953.56095796
1	7522	111	6007.68095796
1	7534	112	6061.80095796
1	7637	113	6115.92095796
1	7735	114	6170.05031544
1	7790	115	6224.17031544
1	7842	116	6278.29031544
1	7854	117	6332.41031544
1	7913	118	6386.53031544
1	8055	119	6440.72049852
1	8110	120	6494.84049852
1	8162	121	6548.96049852
1	8174	122	6603.08049852
1	8277	123	6657.20049852
1	8418	124	6711.32049852
1	8470	125	6765.449856
1	8482	126	6819.569856
1	8498	127	6873.689856
1	8597	128	6927.809856
1	8744	129	6981.929856
1	8876	130	7036.05921348
1	8888	131	7090.17921348
1	8947	132	7144.29921348
1	8999	133	7198.41921348
1	9015	134	7252.53921348
1	9113	135	7306.65921348
1	9165	136	7360.77921348
1	9224	137	7414.89921348
1	9280	138	7469.01921348
1	9378	139	7523.13921348
1	9430	140	7577.25921348
1	9446	141	7631.37921348
1	9545	142	7685.49921348
1	9689	143	7739.61921348
1	9781	144	7793.74857096
1	9793	145	7847.86857096
1	9863	146	7901.98857096
1	9994	147	7956.10857096
1	10089	148	8010.22857096
1	10101	149	8064.34857096
1	10160	150	8118.46857096
1	10302	151	8172.58857096
1	10357	152	8226.70857096
1	10409	153	8280.82857096
1	10421	154	8334.94857096
1	10480	155	8389.06857096
1	10579	156	8443.18857096
1	10634	157	8497.30857096
1	10772	158	8551.43792844
1	10784	159	8605.55792844
1	10800	160	8659.67792844
1	10855	161	8713.79792844
1	10954	162	8767.91792844
1	11052	163	8822.03792844
1	11104	164	8876.16728592
1	11116	165	8930.28728592
1	11175	166	8984.40728592
1	11274	167	9038.52728592
1	11458	168	9092.6566434
1	11510	169	9146.7766434
1	11522	170	9200.8966434
1	11711	171	9255.02600088
1	11763	172	9309.14600088
1	11779	173	9363.26600088
1	11921	174	9417.45618396
1	12016	175	9471.57618396
1	12028	176	9525.69618396
1	12174	177	9579.81618396
1	12229	178	9633.94554144
1	12367	179	9688.06554144
1	12379	180	9742.18554144
1	12449	181	9796.3312020424
1	12580	182	9850.505082
1	12632	183	9904.625082
1	12648	184	9958.745082
1	12790	185	10012.93526508
1	12845	186	10067.06462256
1	12940	187	10121.18462256
1	12952	188	10175.30462256
1	12968	189	10229.42462256
1	13067	190	10283.61480564
1	13165	191	10337.73480564
1	13217	192	10391.85480564
1	13276	193	10445.97480564
1	13418	194	10500.09480564
1	13470	195	10554.21480564
1	13486	196	10608.33480564
1	13585	197	10662.45480564
1	13683	198	10716.57480564
1	13821	199	10770.69480564
1	13833	200	10824.81480564
1	13849	201	10878.93480564
1	14034	202	10933.05480564
1	14086	203	10987.17480564
1	14102	204	11041.29480564
1	14201	205	11095.41480564
1	14256	206	11149.53480564
1	14394	207	11203.66416312
1	14406	208	11257.78416312
1	14422	209	11311.90416312
1	14564	210	11366.02416312
1	14702	211	11420.14416312
1	14714	212	11474.26416312
1	14730	213	11528.38416312
1	14829	214	11582.50416312
1	14884	215	11636.62416312
1	14979	216	11690.74416312
1	14991	217	11744.86416312
1	15050	218	11798.98416312
1	15149	219	11853.10416312
1	15250	220	11907.22416312
1	15342	221	11961.3535206
1	15354	222	12015.4735206
1	15500	223	12069.5935206
1	15598	224	12123.7135206
1	15650	225	12177.8335206
1	15662	226	12231.9535206
1	15721	227	12286.0735206
1	15820	228	12340.1935206
1	15918	229	12394.3135206
1	15970	230	12448.4335206
1	15982	231	12502.5535206
1	16085	232	12556.6735206
1	16269	233	12610.80287808
1	16321	234	12664.92287808
1	16333	235	12719.04287808
1	16349	236	12773.16287808
1	16574	237	12827.28287808
1	16586	238	12881.40287808
1	16602	239	12935.52287808
1	16701	240	12989.64287808
1	16756	241	13043.76287808
1	16894	242	13097.89223556
1	16906	243	13152.01223556
1	16922	244	13206.13223556
1	17021	245	13260.25223556
1	17119	246	13314.37223556
1	17174	247	13368.49223556
1	17226	248	13422.61223556
1	17238	249	13476.73223556
1	17297	250	13530.85223556
1	17396	251	13584.97223556
1	17494	252	13639.09223556
1	17546	253	13693.22159304
1	17558	254	13747.34159304
1	17628	255	13801.46159304
1	17799	256	13855.58159304
1	17811	257	13909.70159304
1	17827	258	13963.82159304
1	17882	259	14017.94159304
1	18024	260	14072.06159304
1	18208	261	14126.18159304
1	18260	262	14180.31095052
1	18272	263	14234.43095052
1	18418	264	14288.55095052
1	18519	265	14342.680308
1	18611	266	14396.800308
1	18623	267	14450.920308
1	18639	268	14505.040308
1	18781	269	14559.23049108
1	18962	270	14613.35984856
1	18974	271	14667.47984856
1	18990	272	14721.59984856
1	19085	273	14775.71984856
1	19101	274	14829.83984856
1	19156	275	14883.95984856
1	19211	276	14938.08920604
1	19349	277	14992.20920604
1	19361	278	15046.32920604
1	19377	279	15100.44920604
1	19476	280	15154.63938912
1	19574	281	15208.75938912
1	19626	282	15262.87938912
1	19642	283	15316.99938912
1	19741	284	15371.11938912
1	19879	285	15425.23938912
1	19891	286	15479.35938912
1	19950	287	15533.47938912
1	20006	288	15587.59938912
1	20104	289	15641.7287466
1	20199	290	15695.8487466
1	20211	291	15749.9687466
1	20281	292	15804.158331522
1	20369	293	15858.27892968
1	20550	294	15912.40828716
1	20562	295	15966.52828716
1	20578	296	16020.64828716
1	20677	297	16074.83847024
1	20818	298	16128.95847024
1	20870	299	16183.08782772
1	20882	300	16237.20782772
1	20898	301	16291.32782772
1	20997	302	16345.44782772
1	21095	303	16399.56782772
1	21190	304	16453.68782772
1	21202	305	16507.80782772
1	21218	306	16561.92782772
1	21317	307	16616.04782772
1	21372	308	16670.16782772
1	21470	309	16724.28782772
1	21522	310	16778.4171852
1	21534	311	16832.5371852
1	21550	312	16886.6571852
1	21649	313	16940.7771852
1	21833	314	16994.90654268
1	21885	315	17049.02654268
1	21897	316	17103.14654268
1	22043	317	17157.33672576
1	22141	318	17211.45672576
1	22193	319	17265.58608324
1	22205	320	17319.70608324
1	22264	321	17373.82608324
1	22363	322	17427.94608324
1	22458	323	17482.06608324
1	22470	324	17536.18608324
1	22529	325	17590.30608324
1	22628	326	17644.42608324
1	22766	327	17698.54608324
1	22778	328	17752.66608324
1	22837	329	17806.78608324
1	22893	330	17860.90608324
1	22991	331	17915.02608324
1	23129	332	17969.14608324
1	23141	333	18023.26608324
1	23157	334	18077.38608324
1	23256	335	18131.50608324
1	23397	336	18185.62608324
1	23449	337	18239.74608324
1	23461	338	18293.86608324
1	23607	339	18347.98608324
1	23745	340	18402.11544072
1	23757	341	18456.23544072
1	23773	342	18510.35544072
1	23828	343	18564.47544072
1	23970	344	18618.59544072
1	24084	345	18672.7247982
1	24096	346	18726.8447982
1	24112	347	18780.9647982
1	24211	348	18835.0847982
1	24309	349	18889.2047982
1	24361	350	18943.3247982
1	24377	351	18997.4447982
1	24519	352	19051.5647982
1	24574	353	19105.69415568
1	24669	354	19159.81415568
1	24681	355	19213.93415568
1	24740	356	19268.05415568
1	24839	357	19322.24433876
1	24894	358	19376.36433876
1	24989	359	19430.48433876
1	25001	360	19484.60433876
1	25017	361	19538.72433876
1	25159	362	19592.84433876
1	25343	363	19646.97369624
1	25395	364	19701.09369624
1	25407	365	19755.21369624
1	25506	366	19809.33369624
1	25518	367	19863.45369624
1	25620	368	19917.57369624
1	25715	369	19971.69369624
1	25727	370	20025.81369624
1	25786	371	20079.93369624
1	25885	372	20134.05369624
1	26069	373	20188.18305372
1	26121	374	20242.30305372
1	26133	375	20296.42305372
1	26192	376	20350.54305372
1	26244	377	20404.7332368
1	26303	378	20458.8532368
1	26398	379	20512.98259428
1	26410	380	20567.10259428
1	26426	381	20621.22259428
1	26525	382	20675.41277736
1	26623	383	20729.53277736
1	26761	384	20783.66213484
1	26773	385	20837.78213484
1	26789	386	20891.90213484
1	26884	387	20946.02213484
1	26900	388	21000.14213484
1	26998	389	21054.26213484
1	27050	390	21108.38213484
1	27153	391	21162.50213484
1	27208	392	21216.62213484
1	27306	393	21270.75149232
1	27358	394	21324.87149232
1	27370	395	21378.99149232
1	27440	396	21433.172293962
1	27611	397	21487.3016754
1	27623	398	21541.4216754
1	27682	399	21595.5416754
1	27781	400	21649.6616754
1	27882	401	21703.7816754
1	27974	402	21757.91103288
1	27986	403	21812.03103288
1	28004	404	21866.15103288
1	28101	405	21920.27103288
1	28199	406	21974.40039036
1	28423	407	22028.52039036
1	28435	408	22082.64039036
1	28451	409	22136.76039036
1	28550	410	22190.88039036
1	28605	411	22245.00039036
1	28671	412	22299.12039036
1	28798	413	22353.24974784
1	28810	414	22407.36974784
1	28826	415	22461.48974784
1	28925	416	22515.60974784
1	29063	417	22569.72974784
1	29075	418	22623.84974784
1	29134	419	22677.96974784
1	29328	420	22732.08974784
1	29500	421	22786.21910532
1	29512	422	22840.33910532
1	29571	423	22894.45910532
1	29670	424	22948.6492884
1	29811	425	23002.7692884
1	29863	426	23056.89864588
1	29875	427	23111.01864588
1	30021	428	23165.13864588
1	30208	429	23219.25864588
1	30300	430	23273.38800336
1	30312	431	23327.50800336
1	30371	432	23381.62800336
1	30470	433	23435.74800336
1	30608	434	23489.87736084
1	30620	435	23543.99736084
1	30636	436	23598.11736084
1	30778	437	23652.23736084
1	30873	438	23706.35736084
1	30885	439	23760.47736084
1	30944	440	23814.59736084
1	31043	441	23868.71736084
1	31187	442	23922.83736084
1	31279	443	23976.96671832
1	31291	444	24031.08671832
1	31350	445	24085.20671832
1	31402	446	24139.32671832
1	31504	447	24193.44671832
1	31556	448	24247.56671832
1	31572	449	24301.68671832
1	31627	450	24355.80671832
1	31726	451	24409.92671832
1	31781	452	24464.04671832
1	31965	453	24518.1760758
1	32017	454	24572.2960758
1	32029	455	24626.4160758
1	32132	456	24680.60625888
1	32230	457	24734.72625888
1	32368	458	24788.85561636
1	32380	459	24842.97561636
1	32396	460	24897.09561636
1	32491	461	24951.21561636
1	32507	462	25005.33561636
1	32562	463	25059.45561636
1	32786	464	25113.57561636
1	32798	465	25167.69561636
1	32814	466	25221.81561636
1	32869	467	25275.93561636
1	32925	468	25330.05561636
1	33066	469	25384.17561636
1	33118	470	25438.30497384
1	33130	471	25492.42497384
1	33189	472	25546.54497384
1	33245	473	25600.66497384
1	33300	474	25654.78497384
1	33398	475	25708.90497384
1	33450	476	25763.02497384
1	33462	477	25817.14497384
1	33521	478	25871.26497384
1	33663	479	25925.38497384
1	33758	480	25979.50497384
1	33770	481	26033.62497384
1	33786	482	26087.74497384
1	33928	483	26141.86497384
1	33983	484	26195.98497384
1	34164	485	26250.11433132
1	34176	486	26304.23433132
1	34192	487	26358.35433132
1	34287	488	26412.47433132
1	34346	489	26466.59433132
1	34493	490	26520.7236888
1	34625	491	26574.8436888
1	34637	492	26628.9636888
1	34653	493	26683.0836888
1	34754	494	26737.27387188
1	34890	495	26791.39387188
1	34902	496	26845.51387188
1	35005	497	26899.63387188
1	35103	498	26953.75387188
1	35155	499	27007.87387188
1	35214	500	27061.99387188
1	35356	501	27116.11387188
1	35408	502	27170.23387188
1	35424	503	27224.35387188
1	35523	504	27278.47387188
1	35704	505	27332.59387188
1	35716	506	27386.71387188
1	35775	507	27440.83387188
1	35874	508	27494.95387188
1	35969	509	27549.07387188
1	35981	510	27603.19387188
1	36040	511	27657.31387188
1	36096	512	27711.43387188
1	36194	513	27765.55387188
1	36375	514	27819.67387188
1	36387	515	27873.79387188
1	36403	516	27927.91387188
1	36458	517	27982.03387188
1	36514	518	28036.15387188
1	36612	519	28090.27387188
1	36667	520	28144.39387188
1	36719	521	28198.52322936
1	36731	522	28252.64322936
1	36877	523	28306.76322936
1	36975	524	28360.88322936
1	37027	525	28415.00322936
1	37039	526	28469.12322936
1	37098	527	28523.24322936
1	37240	528	28577.36322936
1	37292	529	28631.48322936
1	37308	530	28685.60322936
1	37407	531	28739.72322936
1	37551	532	28793.85258684
1	37643	533	28847.97258684
1	37655	534	28902.09258684
1	37714	535	28956.21258684
1	37856	536	29010.4121274
1	37908	537	29064.5321274
1	37967	538	29118.6521274
1	38109	539	29172.84231048
1	38204	540	29226.97166796
1	38216	541	29281.09166796
1	38319	542	29335.21166796
1	38417	543	29389.33166796
1	38512	544	29443.46102544
1	38524	545	29497.58102544
1	38540	546	29551.70102544
1	38682	547	29605.82102544
1	38737	548	29659.94102544
1	38832	549	29714.06102544
1	38844	550	29768.18102544
1	38947	551	29822.30102544
1	39045	552	29876.42102544
1	39143	553	29930.54102544
1	39195	554	29984.67038292
1	39207	555	30038.79038292
1	39266	556	30092.91038292
1	39318	557	30147.03038292
1	39377	558	30201.15038292
1	39475	559	30255.27038292
1	39527	560	30309.39038292
1	39539	561	30363.51038292
1	39598	562	30417.63038292
1	39654	563	30471.75038292
1	39752	564	30525.87038292
1	39847	565	30579.99038292
1	39859	566	30634.11038292
1	39875	567	30688.23038292
1	39974	568	30742.35038292
1	40029	569	30796.47038292
1	40124	570	30850.59038292
1	40136	571	30904.71038292
1	40195	572	30958.83038292
1	40377	573	31012.95038292
1	40389	574	31067.07038292
1	40448	575	31121.19038292
1	40547	576	31175.31038292
1	40642	577	31229.43038292
1	40654	578	31283.55038292
1	40670	579	31337.67038292
1	40769	580	31391.79038292
1	40971	581	31445.9197404
1	41063	582	31500.0397404
1	41075	583	31554.1597404
1	41174	584	31608.2797404
1	41186	585	31662.3997404
1	41288	586	31716.5197404
1	41340	587	31770.6397404
1	41356	588	31824.7597404
1	41455	589	31878.8797404
1	41657	590	31933.00909788
1	41749	591	31987.12909788
1	41761	592	32041.24909788
1	41820	593	32095.36909788
1	41872	594	32149.55928096
1	41974	595	32203.67928096
1	42155	596	32257.80863844
1	42167	597	32311.92863844
1	42183	598	32366.04863844
1	42278	599	32420.16863844
1	42294	600	32474.28863844
1	42349	601	32528.40863844
1	42487	602	32582.53799592
1	42499	603	32636.65799592
1	42515	604	32690.77799592
1	42616	605	32744.89799592
1	42712	606	32799.01799592
1	42764	607	32853.13799592
1	42780	608	32907.25799592
1	42879	609	32961.37799592
1	42977	610	33015.5073534
1	43072	611	33069.6273534
1	43084	612	33123.7473534
1	43143	613	33177.8673534
1	43242	614	33232.05753648
1	43340	615	33286.17753648
1	43392	616	33340.29753648
1	43404	617	33394.41753648
1	43463	618	33448.53753648
1	43562	619	33502.65753648
1	43660	620	33556.77753648
1	43712	621	33610.89753648
1	43724	622	33665.01753648
1	43827	623	33719.13753648
1	43882	624	33773.25753648
1	44063	625	33827.37753648
1	44075	626	33881.49753648
1	44091	627	33935.61753648
1	44190	628	33989.73753648
1	44288	629	34043.86689396
1	44426	630	34097.98689396
1	44438	631	34152.10689396
1	44454	632	34206.22689396
1	44509	633	34260.34689396
1	44608	634	34314.53707704
1	44703	635	34368.65707704
1	44715	636	34422.77707704
1	44774	637	34476.89707704
1	44873	638	34531.01707704
1	44939	639	34585.14643452
1	44980	640	34639.26643452
1	45039	641	34693.38643452
1	45138	642	34747.5766176
1	45236	643	34801.6966176
1	45288	644	34855.82597508
1	45300	645	34909.94597508
1	45489	646	34964.06597508
1	45627	647	35018.18597508
1	45639	648	35072.30597508
1	45655	649	35126.42597508
1	45750	650	35180.54597508
1	45766	651	35234.66597508
1	45947	652	35288.78597508
1	45959	653	35342.90597508
1	45975	654	35397.02597508
1	46030	655	35451.14597508
1	46129	656	35505.26597508
1	46224	657	35559.39533256
1	46236	658	35613.51533256
1	46252	659	35667.63533256
1	46394	660	35721.82551564
1	46492	661	35775.94551564
1	46544	662	35830.06551564
1	46556	663	35884.18551564
1	46572	664	35938.30551564
1	46757	665	35992.42551564
1	46852	666	36046.54551564
1	46864	667	36100.66551564
1	46923	668	36154.78551564
1	47065	669	36208.90551564
1	47120	670	36263.02551564
1	47172	671	36317.14551564
1	47184	672	36371.26551564
1	47254	673	36425.38551564
1	47425	674	36479.50551564
1	47437	675	36533.62551564
1	47453	676	36587.74551564
1	47595	677	36641.86551564
1	47690	678	36695.98551564
1	47702	679	36750.10551564
1	47718	680	36804.22551564
1	47817	681	36858.34551564
1	47915	682	36912.46551564
1	47967	683	36966.58551564
1	47983	684	37020.70551564
1	48038	685	37074.82551564
1	48180	686	37128.94551564
1	48404	687	37183.07487312
1	48416	688	37237.19487312
1	48432	689	37291.31487312
1	48487	690	37345.43487312
1	48629	691	37399.5642306
1	48724	692	37453.6842306
1	48736	693	37507.8042306
1	48882	694	37561.99441368
1	49020	695	37616.11441368
1	49032	696	37670.23441368
1	49091	697	37724.35441368
1	49190	698	37778.47441368
1	49291	699	37832.60377116
1	49383	700	37886.72377116
1	49395	701	37940.84377116
1	49498	702	37995.03395424
1	49636	703	38049.16331172
1	49648	704	38103.28331172
1	49707	705	38157.40331172
1	49806	706	38211.5934948
1	49947	707	38265.72285228
1	49999	708	38319.84285228
1	50011	709	38373.96285228
1	50114	710	38428.08285228
1	50169	711	38482.20285228
1	50267	712	38536.32285228
1	50319	713	38590.45220976
1	50331	714	38644.57220976
1	50390	715	38698.69220976
1	50532	716	38752.81220976
1	50584	717	38806.93220976
1	50643	718	38861.05220976
1	50742	719	38915.17220976
1	50840	720	38969.29220976
1	50892	721	39023.41220976
1	50904	722	39077.53220976
1	51007	723	39131.65220976
1	51105	724	39185.78156724
1	51200	725	39239.90156724
1	51212	726	39294.02156724
1	51228	727	39348.14156724
1	51323	728	39402.33175032
1	51382	729	39456.45175032
1	51563	730	39510.5811078
1	51575	731	39564.7011078
1	51591	732	39618.8211078
1	51690	733	39672.9411078
1	51788	734	39727.07046528
1	51883	735	39781.19046528
1	51895	736	39835.31046528
1	51911	737	39889.43046528
1	51977	738	39943.586033803
1	52108	739	39997.74064836
1	52203	740	40051.87000584
1	52215	741	40105.99000584
1	52231	742	40160.11000584
1	52330	743	40214.23000584
1	52385	744	40268.35000584
1	52523	745	40322.47000584
1	52535	746	40376.59000584
1	52551	747	40430.71000584
1	52646	748	40484.83000584
1	52662	749	40538.95000584
1	52717	750	40593.07000584
1	52815	751	40647.19000584
1	52867	752	40701.31000584
1	52879	753	40755.43000584
1	52938	754	40809.55000584
1	53037	755	40863.67000584
1	53132	756	40917.79000584
1	53144	757	40971.91000584
1	53247	758	41026.03000584
1	53385	759	41080.15936332
1	53397	760	41134.27936332
1	53467	761	41188.403346883
1	53638	762	41242.59890388
1	53650	763	41296.71890388
1	53709	764	41350.83890388
1	53891	765	41405.03844444
1	53903	766	41459.15844444
1	53919	767	41513.27844444
1	53974	768	41567.39844444
1	54073	769	41621.58862752
1	54168	770	41675.70862752
1	54180	771	41729.82862752
1	54196	772	41783.94862752
1	54295	773	41838.06862752
1	54476	774	41892.197985
1	54488	775	41946.317985
1	54504	776	42000.437985
1	54646	777	42054.62816808
1	54790	778	42108.74816808
1	54882	779	42162.87752556
1	54894	780	42216.99752556
1	54953	781	42271.11752556
1	55052	782	42325.23752556
1	55190	783	42379.35752556
1	55202	784	42433.47752556
1	55218	785	42487.59752556
1	55360	786	42541.71752556
1	55498	787	42595.84688304
1	55510	788	42649.96688304
1	55526	789	42704.08688304
1	55581	790	42758.20688304
1	55637	791	42812.32688304
1	55781	792	42866.45624052
1	55873	793	42920.57624052
1	55885	794	42974.69624052
1	55901	795	43028.81624052
1	55996	796	43083.0064236
1	56012	797	43137.1264236
1	56110	798	43191.2464236
1	56205	799	43245.3664236
1	56217	800	43299.4864236
1	56276	801	43353.6064236
1	56375	802	43407.7264236
1	56556	803	43461.85578108
1	56568	804	43515.97578108
1	56584	805	43570.09578108
1	56726	806	43624.21578108
1	56830	807	43678.33578108
1	56962	808	43732.46513856
1	56974	809	43786.58513856
1	57073	810	43840.70513856
1	57085	811	43894.82513856
1	57144	812	43948.94513856
1	57282	813	44003.07449604
1	57294	814	44057.19449604
1	57310	815	44111.31449604
1	57409	816	44165.50467912
1	57507	817	44219.6340366
1	57602	818	44273.7540366
1	57614	819	44327.8740366
1	57630	820	44381.9940366
1	57729	821	44436.18421968
1	57953	822	44490.30421968
1	57965	823	44544.42421968
1	57981	824	44598.54421968
1	58080	825	44652.66421968
1	58178	826	44706.78421968
1	58230	827	44760.90421968
1	58246	828	44815.02421968
1	58345	829	44869.14421968
1	58486	830	44923.26421968
1	58538	831	44977.38421968
1	58550	832	45031.50421968
1	58649	833	45085.62421968
1	58661	834	45139.74421968
1	58763	835	45193.87357716
1	58920	836	45247.99357716
1	58932	837	45302.11357716
1	58991	838	45356.23357716
1	59090	839	45410.42376024
1	59194	840	45464.54376024
1	59326	841	45518.67311772
1	59338	842	45572.79311772
1	59397	843	45626.91311772
1	59449	844	45681.03311772
1	59465	845	45735.15311772
1	59563	846	45789.27311772
1	59661	847	45843.39311772
1	59713	848	45897.51311772
1	59725	849	45951.63311772
1	59828	850	46005.75311772
1	59883	851	46059.87311772
1	59978	852	46113.99311772
1	59990	853	46168.11311772
1	60049	854	46222.23311772
1	60148	855	46276.35311772
1	60203	856	46330.4824752
1	60403	857	46384.6024752
1	60415	858	46438.7224752
1	60431	859	46492.8424752
1	60526	860	46547.03265828
1	60585	861	46601.15265828
1	60683	862	46655.27265828
1	60735	863	46709.39265828
1	60747	864	46763.51265828
1	60850	865	46817.63265828
1	60948	866	46871.75265828
1	61000	867	46925.87265828
1	61016	868	46979.99265828
1	61115	869	47034.11265828
1	61213	870	47088.23265828
1	61308	871	47142.35265828
1	61320	872	47196.47265828
1	61379	873	47250.59265828
1	61521	874	47304.71265828
1	61745	875	47358.84201576
1	61757	876	47412.96201576
1	61773	877	47467.08201576
1	61872	878	47521.20201576
1	62062	879	47575.32201576
1	62194	880	47629.45137324
1	62206	881	47683.57137324
1	62265	882	47737.69137324
1	62407	883	47791.82073072
1	62462	884	47845.94073072
1	62514	885	47900.06073072
1	62526	886	47954.18073072
1	62585	887	48008.30073072
1	62684	888	48062.4909138
1	62779	889	48116.62027128
1	62791	890	48170.74027128
1	62850	891	48224.86027128
1	62992	892	48279.05045436
1	63087	893	48333.17981184
1	63099	894	48387.29981184
1	63115	895	48441.41981184
1	63170	896	48495.53981184
1	63269	897	48549.65981184
1	63324	898	48603.77981184
1	63462	899	48657.90916932
1	63474	900	48712.02916932
1	63490	901	48766.14916932
1	63585	902	48820.26916932
1	63601	903	48874.38916932
1	63699	904	48928.50916932
1	63859	905	48982.6385268
1	63911	906	49036.7585268
1	63923	907	49090.8785268
1	63982	908	49144.9985268
1	64034	909	49199.1185268
1	64182	910	49253.2385268
1	64274	911	49307.36788428
1	64286	912	49361.48788428
1	64302	913	49415.60788428
1	64397	914	49469.72788428
1	64413	915	49523.84788428
1	64551	916	49577.97724176
1	64563	917	49632.09724176
1	64579	918	49686.21724176
1	64721	919	49740.40742484
1	64819	920	49794.52742484
1	64871	921	49848.64742484
1	64883	922	49902.76742484
1	64942	923	49956.88742484
1	65084	924	50011.00742484
1	65136	925	50065.12742484
1	65152	926	50119.24742484
1	65207	927	50173.367424841
1	65306	928	50227.487424841
1	65404	929	50281.607424841
1	65456	930	50335.727424841
1	65468	931	50389.847424841
1	65567	932	50443.967424841
1	65579	933	50498.087424841
1	65638	934	50552.207424841
1	65825	935	50606.336782321
1	65917	936	50660.456782321
1	65929	937	50714.576782321
1	65988	938	50768.696782321
1	66087	939	50822.886965401
1	66142	940	50877.006965401
1	66280	941	50931.136322881
1	66292	942	50985.256322881
1	66308	943	51039.376322881
1	66407	944	51093.496322881
1	66591	945	51147.616322881
1	66643	946	51201.736322881
1	66655	947	51255.856322881
1	66758	948	51309.976322881
1	66896	949	51364.096322881
1	66908	950	51418.216322881
1	66967	951	51472.336322881
1	67023	952	51526.456322881
1	67121	953	51580.576322881
1	67173	954	51634.696322881
1	67189	955	51688.816322881
1	67244	956	51742.936322881
1	67386	957	51797.056322881
1	67441	958	51851.176322881
1	67493	959	51905.296322881
1	67505	960	51959.416322881
1	67651	961	52013.536322881
1	67706	962	52067.656322881
1	67844	963	52121.785680361
1	67856	964	52175.905680361
1	67872	965	52230.025680361
1	67927	966	52284.145680361
1	68026	967	52338.265680361
1	68127	968	52392.385680361
1	68195	969	52446.515037841
1	68207	970	52500.635037841
1	68312	971	52554.755037841
1	68580	972	52608.884395321
1	68632	973	52663.004395321
1	68644	974	52717.124395321
1	68747	975	52771.314578401
1	68845	976	52825.443935881
1	68897	977	52879.563935881
1	68913	978	52933.683935881
1	69055	979	52987.874118961
1	69156	980	53041.994118961
1	69248	981	53096.123476441
1	69260	982	53150.243476441
1	69319	983	53204.363476441
1	69375	984	53258.483476441
1	69473	985	53312.612833921
1	69568	986	53366.732833921
1	69580	987	53420.852833921
1	69639	988	53474.972833921
1	69738	989	53529.163017001
1	69793	990	53583.283017001
1	69888	991	53637.403017001
1	69900	992	53691.523017001
1	69999	993	53745.643017001
1	70011	994	53799.763017001
1	70070	995	53853.883017001
1	70125	996	53908.003017001
1	70177	997	53962.123017001
1	70193	998	54016.243017001
1	70335	999	54070.363017001
1	70430	1000	54124.483017001
1	70442	1001	54178.603017001
1	70501	1002	54232.723017001
1	70600	1003	54286.843017001
1	70738	1004	54340.972374481
1	70750	1005	54395.092374481
1	70766	1006	54449.212374481
1	70865	1007	54503.332374481
1	71003	1008	54557.452374481
1	71015	1009	54611.572374481
1	71118	1010	54665.692374481
1	71256	1011	54719.821731961
1	71268	1012	54773.941731961
1	71327	1013	54828.061731961
1	71383	1014	54882.251915041
1	71573	1015	54936.371915041
1	71705	1016	54990.501272521
1	71717	1017	55044.621272521
1	71776	1018	55098.741272521
1	71875	1019	55152.861272521
1	72013	1020	55206.981272521
1	72025	1021	55261.101272521
1	72041	1022	55315.221272521
1	72096	1023	55369.341272521
1	72195	1024	55423.461272521
1	72462	1025	55477.590630001
1	72474	1026	55531.710630001
1	72490	1027	55585.830630001
1	72589	1028	55639.950630001
1	72687	1029	55694.070630001
1	72742	1030	55748.190630001
1	72794	1031	55802.310630001
1	72806	1032	55856.430630001
1	72909	1033	55910.550630001
1	73059	1034	55964.679987481
1	73231	1035	56018.799987481
1	73243	1036	56072.919987481
1	73259	1037	56127.039987481
1	73444	1038	56181.159987481
1	73496	1039	56235.279987481
1	73555	1040	56289.399987481
1	73783	1041	56343.519987481
1	73835	1042	56397.639987481
1	73847	1043	56451.759987481
1	73906	1044	56505.879987481
1	74005	1045	56559.999987481
1	74103	1046	56614.119987481
1	74155	1047	56668.239987481
1	74167	1048	56722.359987481
1	74313	1049	56776.479987481
1	74368	1050	56830.599987481
1	74506	1051	56884.729344961
1	74518	1052	56938.849344961
1	74534	1053	56992.969344961
1	74719	1054	57047.089344961
1	74814	1055	57101.209344961
1	74826	1056	57155.329344961
1	74842	1057	57209.449344961
1	74941	1058	57263.569344961