file 2805248 1311708803                                         
version 2
run Time-0-20110726-14:33:13-10410
attr configname Time
attr datetime 20110726-14:33:13
attr experiment Time
attr inifile /home/reu/Desktop/omnetpp-4.1/samples/myWSN/omnetpp.ini
attr iterationvars ""
attr iterationvars2 $repetition=0
attr measurement ""
attr network MyWSN3
attr processid 10410
attr repetition 0
attr replication #0
attr resultdir results
attr runnumber 0
attr seedset 0

vector 1  MyWSN3.node[0].appl  "Total Power"  ETV
vector 8  MyWSN3.node[1].appl  "Total Power"  ETV
vector 15  MyWSN3.node[2].appl  "Total Power"  ETV
vector 22  MyWSN3.node[3].appl  "Total Power"  ETV
vector 29  MyWSN3.node[4].appl  "Total Power"  ETV
vector 36  MyWSN3.baseStation.appl  "Total Power"  ETV
vector 42  MyWSN3.baseStation.nic.phy  "Total packets sent"  ETV
vector 43  MyWSN3.baseStation.nic.phy  "Total bytes sent"  ETV
vector 12  MyWSN3.node[1].nic.phy  "Total packets sent"  ETV
vector 13  MyWSN3.node[1].nic.phy  "Total bytes sent"  ETV
vector 19  MyWSN3.node[2].nic.phy  "Total packets sent"  ETV
vector 20  MyWSN3.node[2].nic.phy  "Total bytes sent"  ETV
vector 26  MyWSN3.node[3].nic.phy  "Total packets sent"  ETV
vector 27  MyWSN3.node[3].nic.phy  "Total bytes sent"  ETV
vector 5  MyWSN3.node[0].nic.phy  "Total packets sent"  ETV
vector 6  MyWSN3.node[0].nic.phy  "Total bytes sent"  ETV
vector 33  MyWSN3.node[4].nic.phy  "Total packets sent"  ETV
vector 34  MyWSN3.node[4].nic.phy  "Total bytes sent"  ETV
vector 2  MyWSN3.node[0].appl  "Power Per Round"  ETV
vector 9  MyWSN3.node[1].appl  "Power Per Round"  ETV
vector 16  MyWSN3.node[2].appl  "Power Per Round"  ETV
vector 23  MyWSN3.node[3].appl  "Power Per Round"  ETV
vector 30  MyWSN3.node[4].appl  "Power Per Round"  ETV
vector 37  MyWSN3.baseStation.appl  "Power Per Round"  ETV
vector 38  MyWSN3.baseStation.appl  "Num of Right Pkts"  ETV
vector 39  MyWSN3.baseStation.appl  "Amount of Bytes for Right Pkts"  ETV
1	1900 294113 1 482429 1 9999 9999 54.12 541195.80929169 2705978408.5001 9.7635839204803e+14
2	296013 57809 368 482442 10 10000 1999 270.59999999998 541.2053658 541249.92929169 146622196.54019
5	353822 39253 245 482381 5.181912099772 9997.441872 1573 1 1573 1237951 1298610599
6	393075 43270 245 482381 5.181912099772 9997.441872 1573 78 777506 608520856 3.1510532310727e+14
8	436345 294325 2 482430 1 9999 9999 54.12 541198.02333561 2705989152.5062 9.7636584296283e+14
9	730670 57827 369 482243 10 9995 1998 270.59999999998 541.2053658 540981.54333561 146550170.57821
12	788497 41525 113 482095 4.741912099772 9992.721872 1599 1 1599 1279200 1364053600
13	830022 45604 113 482095 4.741912099772 9992.721872 1599 78 812276 647232927 3.4885774037258e+14
15	875626 304216 3 482431 1 9999 9999 54.12 541197.20890221 2705984388.5432 9.7636267649517e+14
16	1179842 59818 370 482244 10 9995 1998 270.59999999995 541.2053658 540980.72890221 146549729.75245
19	1239660 41022 153 482151 4.941912099772 9993.161872 1580 1 1580 1248990 1316019130
20	1280682 45069 153 482151 4.941912099772 9993.161872 1580 78 799549 627952370 3.3461195013901e+14
22	1325751 304125 4 482432 1 9999 9999 54.12 541198.55423697 2705990771.3094 9.7636815924691e+14
23	1629876 59789 371 482245 10 9995 1998 270.59999999986 541.2053658 540982.00405389 146550419.95781
26	1689665 41264 193 482269 4.981912099772 9995.241872 1589 1 1589 1263255 1338629215
27	1730929 45308 193 482269 4.981912099772 9995.241872 1589 78 820722 647042464 3.5541542610362e+14
29	1776237 304044 5 482433 1 9999 9999 54.12 541199.78291805 2706003099.3664 9.7637447558829e+14
30	2080281 59770 372 482246 10 9995 1998 270.59999999998 541.2053658 540983.29761561 146551120.1359
33	2140051 40920 285 482325 5.261912099772 9996.481872 1576 1 1576 1242676 1306052476
34	2180971 44997 285 482325 5.261912099772 9996.481872 1576 78 840201 674193356 3.7848681051758e+14
36	2225968 303418 6 482434 1 9999 9999 54.12 541145.88536576 2705729453.631 9.7617838519829e+14
37	2529386 60672 373 482247 10 9995 1998 270.59999999998 541.2053658 540929.40536576 146521950.16795
38	2590058 101772 483 482413 11.564336 9997.444336 3858 1 3858 7444011 19148477629
39	2691830 113371 483 482413 11.564336 9997.444336 3858 1024 3950592 7622667264 2.0078634078306e+16
42	2805201 23 58 58 4.657644099772 4.657644099772 1 1 1 1 1
43	2805224 24 58 58 4.657644099772 4.657644099772 1 78 78 78 6084
