version 2
run Time-0-20110726-14:33:13-10410
attr configname Time
attr datetime 20110726-14:33:13
attr experiment Time
attr inifile /home/reu/Desktop/omnetpp-4.1/samples/myWSN/omnetpp.ini
attr iterationvars ""
attr iterationvars2 $repetition=0
attr measurement ""
attr network MyWSN3
attr processid 10410
attr repetition 0
attr replication #0
attr resultdir results
attr runnumber 0
attr seedset 0

vector 1  MyWSN3.node[0].appl  "Total Power"  ETV
vector 8  MyWSN3.node[1].appl  "Total Power"  ETV
vector 15  MyWSN3.node[2].appl  "Total Power"  ETV
vector 22  MyWSN3.node[3].appl  "Total Power"  ETV
vector 29  MyWSN3.node[4].appl  "Total Power"  ETV
vector 36  MyWSN3.baseStation.appl  "Total Power"  ETV
vector 42  MyWSN3.baseStation.nic.phy  "Total packets sent"  ETV
vector 43  MyWSN3.baseStation.nic.phy  "Total bytes sent"  ETV
vector 12  MyWSN3.node[1].nic.phy  "Total packets sent"  ETV
vector 13  MyWSN3.node[1].nic.phy  "Total bytes sent"  ETV
vector 19  MyWSN3.node[2].nic.phy  "Total packets sent"  ETV
vector 20  MyWSN3.node[2].nic.phy  "Total bytes sent"  ETV
vector 26  MyWSN3.node[3].nic.phy  "Total packets sent"  ETV
vector 27  MyWSN3.node[3].nic.phy  "Total bytes sent"  ETV
vector 5  MyWSN3.node[0].nic.phy  "Total packets sent"  ETV
vector 6  MyWSN3.node[0].nic.phy  "Total bytes sent"  ETV
vector 33  MyWSN3.node[4].nic.phy  "Total packets sent"  ETV
vector 34  MyWSN3.node[4].nic.phy  "Total bytes sent"  ETV
vector 2  MyWSN3.node[0].appl  "Power Per Round"  ETV
vector 9  MyWSN3.node[1].appl  "Power Per Round"  ETV
vector 16  MyWSN3.node[2].appl  "Power Per Round"  ETV
vector 23  MyWSN3.node[3].appl  "Power Per Round"  ETV
vector 30  MyWSN3.node[4].appl  "Power Per Round"  ETV
vector 37  MyWSN3.baseStation.appl  "Power Per Round"  ETV
vector 38  MyWSN3.baseStation.appl  "Num of Right Pkts"  ETV
vector 39  MyWSN3.baseStation.appl  "Amount of Bytes for Right Pkts"  ETV
1	1	1	54.12
1	13	2	108.24
1	25	3	162.36
1	37	4	216.48
1	228	5	270.6
1	320	6	324.7253658
1	332	7	378.8453658
1	344	8	432.9653658
1	356	9	487.0853658
1	374	10	541.2053658
1	430	11	595.39554888
1	486	12	649.51554888
1	542	13	703.63554888
1	598	14	757.75554888
1	617	15	811.87554888
1	673	16	865.99554888
1	729	17	920.12085132
1	785	18	974.24085132
1	798	19	1028.36085132
1	817	20	1082.48085132
1	873	21	1136.60085132
1	929	22	1190.72085132
1	985	23	1244.84615376
1	1041	24	1298.96615376
1	1060	25	1353.08615376
1	1116	26	1407.20615376
1	1172	27	1461.32615376
1	1228	28	1515.44615376
1	1241	29	1569.56615376
1	1260	30	1623.68615376
1	1316	31	1677.80615376
1	1372	32	1731.92615376
1	1428	33	1786.04615376
1	1484	34	1840.16615376
1	1546	35	1894.2914562
1	1602	36	1948.48163928
1	1658	37	2002.60163928
1	1714	38	2056.72163928
1	1770	39	2110.84163928
1	1832	40	2164.96163928
1	1888	41	2219.08163928
1	1944	42	2273.27182236
1	2000	43	2327.39182236
1	2056	44	2381.51182236
1	2075	45	2435.63182236
1	2131	46	2489.75182236
1	2187	47	2543.87182236
1	2243	48	2597.9971248
1	2299	49	2652.1171248
1	2318	50	2706.2371248
1	2374	51	2760.3571248
1	2430	52	2814.4771248
1	2486	53	2868.5971248
1	2542	54	2922.72242724
1	2604	55	2976.84242724
1	2660	56	3030.96242724
1	2716	57	3085.08242724
1	2772	58	3139.20242724
1	2785	59	3193.32242724
1	2804	60	3247.44242724
1	2860	61	3301.63261032
1	2916	62	3355.75261032
1	2972	63	3409.87261032
1	2985	64	3463.99261032
1	3004	65	3518.11261032
1	3060	66	3572.23261032
1	3116	67	3626.4227934
1	3172	68	3680.5427934
1	3228	69	3734.6627934
1	3247	70	3788.7827934
1	3303	71	3842.9027934
1	3359	72	3897.0227934
1	3415	73	3951.14809584
1	3471	74	4005.26809584
1	3490	75	4059.38809584
1	3546	76	4113.50809584
1	3602	77	4167.62809584
1	3658	78	4221.74809584
1	3714	79	4275.87339828
1	3776	80	4329.99339828
1	3832	81	4384.11339828
1	3888	82	4438.23339828
1	3944	83	4492.35339828
1	4000	84	4546.47339828
1	4062	85	4600.59870072
1	4118	86	4654.7888838
1	4174	87	4708.9088838
1	4230	88	4763.0288838
1	4286	89	4817.1488838
1	4305	90	4871.2688838
1	4361	91	4925.3888838
1	4417	92	4979.51418624
1	4473	93	5033.63418624
1	4529	94	5087.75418624
1	4591	95	5141.87418624
1	4647	96	5195.99418624
1	4703	97	5250.11418624
1	4759	98	5304.23948868
1	4772	99	5358.35948868
1	4791	100	5412.47948868
1	4847	101	5466.59948868
1	4903	102	5520.71948868
1	4959	103	5574.83948868
1	4972	104	5628.95948868
1	4991	105	5683.07948868
1	5047	106	5737.19948868
1	5103	107	5791.31948868
1	5159	108	5845.43948868
1	5172	109	5899.55948868
1	5191	110	5953.67948868
1	5247	111	6007.86967176
1	5303	112	6061.98967176
1	5359	113	6116.10967176
1	5415	114	6170.22967176
1	5434	115	6224.34967176
1	5490	116	6278.46967176
1	5546	117	6332.5949742
1	5602	118	6386.7149742
1	5615	119	6440.8349742
1	5677	120	6494.9549742
1	5733	121	6549.0749742
1	5789	122	6603.1949742
1	5845	123	6657.32027664
1	5901	124	6711.44027664
1	5920	125	6765.56027664
1	5976	126	6819.68027664
1	6032	127	6873.80027664
1	6088	128	6927.92027664
1	6101	129	6982.04027664
1	6120	130	7036.16027664
1	6176	131	7090.28027664
1	6232	132	7144.40027664
1	6288	133	7198.52027664
1	6344	134	7252.64027664
1	6406	135	7306.76557908
1	6462	136	7360.95576216
1	6518	137	7415.07576216
1	6574	138	7469.19576216
1	6630	139	7523.31576216
1	6649	140	7577.43576216
1	6705	141	7631.55576216
1	6761	142	7685.6810646
1	6817	143	7739.8010646
1	6830	144	7793.9210646
1	6892	145	7848.0410646
1	6948	146	7902.1610646
1	7004	147	7956.2810646
1	7060	148	8010.40636704
1	7073	149	8064.52636704
1	7092	150	8118.64636704
1	7148	151	8172.76636704
1	7204	152	8226.88636704
1	7260	153	8281.00636704
1	7316	154	8335.13166948
1	7378	155	8389.25166948
1	7434	156	8443.37166948
1	7490	157	8497.49166948
1	7546	158	8551.61166948
1	7559	159	8605.73166948
1	7578	160	8659.85166948
1	7634	161	8714.04185256
1	7690	162	8768.16185256
1	7746	163	8822.28185256
1	7802	164	8876.40185256
1	7821	165	8930.52185256
1	7877	166	8984.64185256
1	7933	167	9038.767155
1	7989	168	9092.887155
1	8002	169	9147.007155
1	8021	170	9201.127155
1	8077	171	9255.247155
1	8133	172	9309.367155
1	8189	173	9363.49245744
1	8202	174	9417.61245744
1	8221	175	9471.73245744
1	8277	176	9525.85245744
1	8333	177	9579.97245744
1	8389	178	9634.09245744
1	8445	179	9688.21775988
1	8464	180	9742.33775988
1	8520	181	9796.45775988
1	8576	182	9850.57775988
1	8632	183	9904.69775988
1	8645	184	9958.81775988
1	8664	185	10012.93775988
1	8720	186	10067.12794296
1	8776	187	10121.24794296
1	8832	188	10175.36794296
1	8845	189	10229.48794296
1	8907	190	10283.60794296
1	8963	191	10337.72794296
1	9019	192	10391.8532454
1	9075	193	10445.9732454
1	9131	194	10500.0932454
1	9193	195	10554.2132454
1	9249	196	10608.3332454
1	9305	197	10662.4532454
1	9361	198	10716.57854784
1	9417	199	10770.69854784
1	9436	200	10824.81854784
1	9492	201	10878.93854784
1	9548	202	10933.05854784
1	9604	203	10987.17854784
1	9660	204	11041.30385028
1	9679	205	11095.42385028
1	9735	206	11149.54385028
1	9791	207	11203.66385028
1	9847	208	11257.78385028
1	9903	209	11311.90385028
1	9922	210	11366.02385028
1	9978	211	11420.21403336
1	10034	212	11474.33403336
1	10090	213	11528.45403336
1	10103	214	11582.57403336
1	10122	215	11636.69403336
1	10178	216	11690.81403336
1	10234	217	11745.00421644
1	10290	218	11799.12421644
1	10346	219	11853.24421644
1	10408	220	11907.36421644
1	10464	221	11961.48421644
1	10520	222	12015.60421644
1	10576	223	12069.72951888
1	10589	224	12123.84951888
1	10608	225	12177.96951888
1	10664	226	12232.08951888
1	10720	227	12286.20951888
1	10776	228	12340.32951888
1	10789	229	12394.44951888
1	10808	230	12448.56951888
1	10864	231	12502.68951888
1	10920	232	12556.80951888
1	10976	233	12610.92951888
1	10989	234	12665.04951888
1	11051	235	12719.23970196
1	11107	236	12773.42988504
1	11163	237	12827.54988504
1	11219	238	12881.66988504
1	11275	239	12935.78988504
1	11337	240	12989.90988504
1	11393	241	13044.02988504
1	11449	242	13098.15518748
1	11505	243	13152.27518748
1	11518	244	13206.39518748
1	11537	245	13260.51518748
1	11593	246	13314.63518748
1	11649	247	13368.75518748
1	11705	248	13422.94537056
1	11761	249	13477.06537056
1	11823	250	13531.18537056
1	11879	251	13585.30537056
1	11935	252	13639.42537056
1	11991	253	13693.54537056
1	12047	254	13747.670673
1	12109	255	13801.790673
1	12165	256	13855.910673
1	12221	257	13910.030673
1	12277	258	13964.150673
1	12333	259	14018.270673
1	12352	260	14072.390673
1	12408	261	14126.58085608
1	12464	262	14180.70085608
1	12520	263	14234.82085608
1	12533	264	14288.94085608
1	12595	265	14343.06085608
1	12651	266	14397.18085608
1	12707	267	14451.30615852
1	12763	268	14505.42615852
1	12776	269	14559.54615852
1	12795	270	14613.66615852
1	12851	271	14667.78615852
1	12907	272	14721.90615852
1	12963	273	14776.03146096
1	13019	274	14830.15146096
1	13038	275	14884.27146096
1	13094	276	14938.39146096
1	13150	277	14992.51146096
1	13206	278	15046.63146096
1	13262	279	15100.7567634
1	13281	280	15154.8767634
1	13337	281	15208.9967634
1	13393	282	15263.1167634
1	13449	283	15317.2367634
1	13462	284	15371.3567634
1	13481	285	15425.4767634
1	13537	286	15479.66694648
1	13593	287	15533.78694648
1	13649	288	15587.90694648
1	13705	289	15642.02694648
1	13724	290	15696.14694648
1	13780	291	15750.26694648
1	13836	292	15804.39224892
1	13892	293	15858.51224892
1	13905	294	15912.63224892
1	13967	295	15966.75224892
1	14023	296	16020.87224892
1	14079	297	16074.99224892
1	14135	298	16129.11755136
1	14148	299	16183.23755136
1	14167	300	16237.35755136
1	14223	301	16291.47755136
1	14279	302	16345.59755136
1	14335	303	16399.71755136
1	14348	304	16453.83755136
1	14367	305	16507.95755136
1	14423	306	16562.07755136
1	14479	307	16616.19755136
1	14535	308	16670.31755136
1	14591	309	16724.43755136
1	14610	310	16778.55755136
1	14666	311	16832.74773444
1	14722	312	16886.86773444
1	14778	313	16940.98773444
1	14791	314	16995.10773444
1	14853	315	17049.22773444
1	14909	316	17103.34773444
1	14965	317	17157.47303688
1	15021	318	17211.59303688
1	15034	319	17265.71303688
1	15053	320	17319.83303688
1	15109	321	17373.95303688
1	15165	322	17428.07303688
1	15221	323	17482.19833932
1	15234	324	17536.31833932
1	15253	325	17590.43833932
1	15309	326	17644.55833932
1	15365	327	17698.67833932
1	15421	328	17752.79833932
1	15477	329	17806.92364176
1	15496	330	17861.04364176
1	15552	331	17915.16364176
1	15608	332	17969.28364176
1	15664	333	18023.40364176
1	15720	334	18077.52364176
1	15782	335	18131.6489442
1	15838	336	18185.83912728
1	15894	337	18239.95912728
1	15950	338	18294.07912728
1	16006	339	18348.19912728
1	16025	340	18402.31912728
1	16081	341	18456.43912728
1	16137	342	18510.56442972
1	16193	343	18564.68442972
1	16249	344	18618.80442972
1	16268	345	18672.92442972
1	16324	346	18727.04442972
1	16380	347	18781.16442972
1	16436	348	18835.28973216
1	16492	349	18889.40973216
1	16554	350	18943.52973216
1	16610	351	18997.64973216
1	16666	352	19051.76973216
1	16722	353	19105.88973216
1	16778	354	19160.0150346
1	16797	355	19214.1350346
1	16853	356	19268.2550346
1	16909	357	19322.3750346
1	16965	358	19376.4950346
1	17021	359	19430.6150346
1	17083	360	19484.74033704
1	17139	361	19538.93052012
1	17195	362	19593.05052012
1	17251	363	19647.17052012
1	17264	364	19701.29052012
1	17283	365	19755.41052012
1	17339	366	19809.53052012
1	17395	367	19863.65582256
1	17451	368	19917.77582256
1	17507	369	19971.89582256
1	17526	370	20026.01582256
1	17582	371	20080.13582256
1	17638	372	20134.25582256
1	17694	373	20188.381125
1	17707	374	20242.501125
1	17726	375	20296.621125
1	17782	376	20350.741125
1	17838	377	20404.861125
1	17894	378	20458.981125
1	17907	379	20513.101125
1	17969	380	20567.221125
1	18025	381	20621.341125
1	18081	382	20675.461125
1	18137	383	20729.581125
1	18193	384	20783.701125
1	18212	385	20837.821125
1	18268	386	20892.01130808
1	18324	387	20946.13130808
1	18380	388	21000.25130808
1	18393	389	21054.37130808
1	18412	390	21108.49130808
1	18468	391	21162.61130808
1	18524	392	21216.73661052
1	18580	393	21270.85661052
1	18593	394	21324.97661052
1	18655	395	21379.09661052
1	18711	396	21433.21661052
1	18767	397	21487.33661052
1	18823	398	21541.5267936
1	18879	399	21595.6467936
1	18898	400	21649.7667936
1	18954	401	21703.8867936
1	19010	402	21758.0067936
1	19066	403	21812.1267936
1	19079	404	21866.2467936
1	19098	405	21920.3667936
1	19154	406	21974.4867936
1	19210	407	22028.6067936
1	19266	408	22082.7267936
1	19322	409	22136.8467936
1	19384	410	22190.97209604
1	19440	411	22245.16227912
1	19496	412	22299.28227912
1	19552	413	22353.40227912
1	19608	414	22407.52227912
1	19670	415	22461.64227912
1	19726	416	22515.76227912
1	19782	417	22569.9524622
1	19838	418	22624.0724622
1	19894	419	22678.1924622
1	19956	420	22732.3124622
1	20012	421	22786.4324622
1	20068	422	22840.5524622
1	20124	423	22894.67776464
1	20180	424	22948.79776464
1	20242	425	23002.91776464
1	20298	426	23057.03776464
1	20354	427	23111.15776464
1	20410	428	23165.27776464
1	20466	429	23219.40306708
1	20485	430	23273.52306708
1	20541	431	23327.64306708
1	20597	432	23381.76306708
1	20653	433	23435.88306708
1	20709	434	23490.00306708
1	20728	435	23544.12306708
1	20784	436	23598.31325016
1	20840	437	23652.43325016
1	20896	438	23706.55325016
1	20952	439	23760.67325016
1	20971	440	23814.79325016
1	21027	441	23868.91325016
1	21083	442	23923.10343324
1	21139	443	23977.22343324
1	21195	444	24031.34343324
1	21214	445	24085.46343324
1	21270	446	24139.58343324
1	21326	447	24193.70343324
1	21382	448	24247.82873568
1	21438	449	24301.94873568
1	21500	450	24356.06873568
1	21556	451	24410.18873568
1	21612	452	24464.30873568
1	21668	453	24518.42873568
1	21724	454	24572.55403812
1	21786	455	24626.67403812
1	21842	456	24680.79403812
1	21898	457	24734.91403812
1	21954	458	24789.03403812
1	21967	459	24843.15403812
1	21986	460	24897.27403812
1	22042	461	24951.4642212
1	22098	462	25005.5842212
1	22154	463	25059.7042212
1	22210	464	25113.8242212
1	22272	465	25167.9442212
1	22328	466	25222.0642212
1	22384	467	25276.25440428
1	22440	468	25330.37440428
1	22496	469	25384.49440428
1	22558	470	25438.61440428
1	22614	471	25492.73440428
1	22670	472	25546.85440428
1	22726	473	25600.97970672
1	22782	474	25655.09970672
1	22801	475	25709.21970672
1	22857	476	25763.33970672
1	22913	477	25817.45970672
1	22969	478	25871.57970672
1	22982	479	25925.69970672
1	23044	480	25979.81970672
1	23100	481	26033.93970672
1	23156	482	26088.05970672
1	23212	483	26142.17970672
1	23268	484	26196.29970672
1	23330	485	26250.42500916
1	23386	486	26304.61519224
1	23442	487	26358.73519224
1	23498	488	26412.85519224
1	23554	489	26466.97519224
1	23573	490	26521.09519224
1	23629	491	26575.21519224
1	23685	492	26629.34049468
1	23741	493	26683.46049468
1	23754	494	26737.58049468
1	23773	495	26791.70049468
1	23829	496	26845.82049468
1	23885	497	26899.94049468
1	23941	498	26954.06579712
1	23954	499	27008.18579712
1	23973	500	27062.30579712
1	24029	501	27116.42579712
1	24085	502	27170.54579712
1	24141	503	27224.66579712
1	24197	504	27278.79109956
1	24216	505	27332.91109956
1	24272	506	27387.03109956
1	24328	507	27441.15109956
1	24384	508	27495.27109956
1	24397	509	27549.39109956
1	24416	510	27603.51109956
1	24472	511	27657.70128264
1	24528	512	27711.82128264
1	24584	513	27765.94128264
1	24640	514	27820.06128264
1	24702	515	27874.18128264
1	24758	516	27928.30128264
1	24814	517	27982.42658508
1	24870	518	28036.54658508
1	24926	519	28090.66658508
1	24988	520	28144.78658508
1	25044	521	28198.90658508
1	25100	522	28253.02658508
1	25156	523	28307.21676816
1	25212	524	28361.33676816
1	25231	525	28415.45676816
1	25287	526	28469.57676816
1	25343	527	28523.69676816
1	25399	528	28577.81676816
1	25455	529	28631.9420706
1	25474	530	28686.0620706
1	25530	531	28740.1820706
1	25586	532	28794.3020706
1	25642	533	28848.4220706
1	25698	534	28902.5420706
1	25760	535	28956.66737304
1	25816	536	29010.85755612
1	25872	537	29064.97755612
1	25928	538	29119.09755612
1	25941	539	29173.21755612
1	26003	540	29227.33755612
1	26059	541	29281.45755612
1	26115	542	29335.6477392
1	26171	543	29389.7677392
1	26227	544	29443.8877392
1	26289	545	29498.0077392
1	26345	546	29552.1277392
1	26401	547	29606.2477392
1	26457	548	29660.37304164
1	26513	549	29714.49304164
1	26575	550	29768.61304164
1	26631	551	29822.73304164
1	26687	552	29876.85304164
1	26743	553	29930.97304164
1	26799	554	29985.09834408
1	26861	555	30039.21834408
1	26917	556	30093.33834408
1	26973	557	30147.45834408
1	27029	558	30201.57834408
1	27085	559	30255.69834408
1	27147	560	30309.82364652
1	27203	561	30364.0138296
1	27259	562	30418.1338296
1	27315	563	30472.2538296
1	27328	564	30526.3738296
1	27347	565	30580.4938296
1	27403	566	30634.6138296
1	27459	567	30688.73913204
1	27515	568	30742.85913204
1	27571	569	30796.97913204
1	27633	570	30851.09913204
1	27689	571	30905.21913204
1	27745	572	30959.33913204
1	27801	573	31013.46443448
1	27857	574	31067.58443448
1	27919	575	31121.70443448
1	27975	576	31175.82443448
1	28031	577	31229.94443448
1	28087	578	31284.06443448
1	28143	579	31338.18973692
1	28162	580	31392.30973692
1	28218	581	31446.42973692
1	28274	582	31500.54973692
1	28330	583	31554.66973692
1	28343	584	31608.78973692
1	28362	585	31662.90973692
1	28418	586	31717.09992
1	28474	587	31771.21992
1	28530	588	31825.33992
1	28543	589	31879.45992
1	28605	590	31933.57992
1	28661	591	31987.69992
1	28717	592	32041.82522244
1	28773	593	32095.94522244
1	28829	594	32150.06522244
1	28891	595	32204.18522244
1	28947	596	32258.30522244
1	29003	597	32312.42522244
1	29059	598	32366.55052488
1	29115	599	32420.67052488
1	29177	600	32474.79052488
1	29233	601	32528.91052488
1	29289	602	32583.03052488
1	29345	603	32637.15052488
1	29401	604	32691.27582732
1	29463	605	32745.39582732
1	29519	606	32799.51582732
1	29575	607	32853.63582732
1	29631	608	32907.75582732
1	29687	609	32961.87582732
1	29706	610	33015.99582732
1	29762	611	33070.1860104
1	29818	612	33124.3060104
1	29874	613	33178.4260104
1	29887	614	33232.5460104
1	29906	615	33286.6660104
1	29962	616	33340.7860104
1	30018	617	33394.97619348
1	30074	618	33449.09619348
1	30130	619	33503.21619348
1	30149	620	33557.33619348
1	30205	621	33611.45619348
1	30261	622	33665.57619348
1	30317	623	33719.70149592
1	30330	624	33773.82149592
1	30349	625	33827.94149592
1	30405	626	33882.06149592
1	30461	627	33936.18149592
1	30517	628	33990.30149592
1	30573	629	34044.42679836
1	30592	630	34098.54679836
1	30648	631	34152.66679836
1	30704	632	34206.78679836
1	30760	633	34260.90679836
1	30773	634	34315.02679836
1	30792	635	34369.14679836
1	30848	636	34423.33698144
1	30904	637	34477.45698144
1	30960	638	34531.57698144
1	31016	639	34585.69698144
1	31078	640	34639.81698144
1	31134	641	34693.93698144
1	31190	642	34748.06228388
1	31246	643	34802.18228388
1	31302	644	34856.30228388
1	31321	645	34910.42228388
1	31377	646	34964.54228388
1	31433	647	35018.66228388
1	31489	648	35072.78758632
1	31502	649	35126.90758632
1	31521	650	35181.02758632
1	31577	651	35235.14758632
1	31633	652	35289.26758632
1	31689	653	35343.38758632
1	31745	654	35397.51288876
1	31807	655	35451.63288876
1	31863	656	35505.75288876
1	31919	657	35559.87288876
1	31975	658	35613.99288876
1	32031	659	35668.11288876
1	32050	660	35722.23288876
1	32106	661	35776.42307184
1	32162	662	35830.54307184
1	32218	663	35884.66307184
1	32274	664	35938.78307184
1	32293	665	35992.90307184
1	32349	666	36047.02307184
1	32405	667	36101.14837428
1	32461	668	36155.26837428
1	32517	669	36209.38837428
1	32536	670	36263.50837428
1	32592	671	36317.62837428
1	32648	672	36371.74837428
1	32704	673	36425.87367672
1	32760	674	36479.99367672
1	32822	675	36534.11367672
1	32878	676	36588.23367672
1	32934	677	36642.35367672
1	32990	678	36696.47367672
1	33046	679	36750.59897916
1	33065	680	36804.71897916
1	33121	681	36858.83897916
1	33177	682	36912.95897916
1	33233	683	36967.07897916
1	33246	684	37021.19897916
1	33265	685	37075.31897916
1	33321	686	37129.50916224
1	33377	687	37183.62916224
1	33433	688	37237.74916224
1	33489	689	37291.86916224
1	33551	690	37345.98916224
1	33607	691	37400.10916224
1	33663	692	37454.23446468
1	33719	693	37508.35446468
1	33775	694	37562.47446468
1	33794	695	37616.59446468
1	33850	696	37670.71446468
1	33906	697	37724.83446468
1	33962	698	37779.02464776
1	34018	699	37833.14464776
1	34080	700	37887.26464776
1	34136	701	37941.38464776
1	34192	702	37995.50464776
1	34248	703	38049.62464776
1	34304	704	38103.81483084
1	34366	705	38157.93483084
1	34422	706	38212.05483084
1	34478	707	38266.17483084
1	34534	708	38320.29483084
1	34590	709	38374.41483084
1	34609	710	38428.53483084
1	34665	711	38482.72501392
1	34721	712	38536.84501392
1	34777	713	38590.96501392
1	34833	714	38645.08501392
1	34852	715	38699.20501392
1	34908	716	38753.32501392
1	34964	717	38807.45031636
1	35020	718	38861.57031636
1	35033	719	38915.69031636
1	35052	720	38969.81031636
1	35108	721	39023.93031636
1	35164	722	39078.05031636
1	35220	723	39132.1756188
1	35276	724	39186.2956188
1	35338	725	39240.4156188
1	35394	726	39294.5356188
1	35450	727	39348.6556188
1	35506	728	39402.7756188
1	35562	729	39456.90092124
1	35624	730	39511.02092124
1	35680	731	39565.14092124
1	35736	732	39619.26092124
1	35792	733	39673.38092124
1	35805	734	39727.50092124
1	35824	735	39781.62092124
1	35880	736	39835.81110432
1	35936	737	39889.93110432
1	35992	738	39944.05110432
1	36005	739	39998.17110432
1	36024	740	40052.29110432
1	36080	741	40106.41110432
1	36136	742	40160.53640676
1	36192	743	40214.65640676
1	36205	744	40268.77640676
1	36224	745	40322.89640676
1	36280	746	40377.01640676
1	36336	747	40431.13640676
1	36392	748	40485.2617092
1	36405	749	40539.3817092
1	36424	750	40593.5017092
1	36480	751	40647.6217092
1	36536	752	40701.7417092
1	36592	753	40755.8617092
1	36648	754	40809.98701164
1	36667	755	40864.10701164
1	36723	756	40918.22701164
1	36779	757	40972.34701164
1	36835	758	41026.46701164
1	36848	759	41080.58701164
1	36867	760	41134.70701164
1	36923	761	41188.89719472
1	36979	762	41243.01719472
1	37035	763	41297.13719472
1	37048	764	41351.25719472
1	37110	765	41405.37719472
1	37166	766	41459.49719472
1	37222	767	41513.62249716
1	37278	768	41567.74249716
1	37291	769	41621.86249716
1	37310	770	41675.98249716
1	37366	771	41730.10249716
1	37422	772	41784.22249716
1	37478	773	41838.3477996
1	37534	774	41892.4677996
1	37596	775	41946.5877996
1	37652	776	42000.7077996
1	37708	777	42054.8277996
1	37764	778	42108.9477996
1	37777	779	42163.0677996
1	37796	780	42217.1877996
1	37852	781	42271.3077996
1	37908	782	42325.4277996
1	37964	783	42379.5477996
1	37977	784	42433.6677996
1	37996	785	42487.7877996
1	38052	786	42541.97798268
1	38108	787	42596.09798268
1	38164	788	42650.21798268
1	38220	789	42704.33798268
1	38282	790	42758.45798268
1	38338	791	42812.57798268
1	38394	792	42866.70328512
1	38450	793	42920.82328512
1	38506	794	42974.94328512
1	38525	795	43029.06328512
1	38581	796	43083.18328512
1	38637	797	43137.30328512
1	38693	798	43191.42858756
1	38706	799	43245.54858756
1	38725	800	43299.66858756
1	38781	801	43353.78858756
1	38837	802	43407.90858756
1	38893	803	43462.02858756
1	38949	804	43516.15389
1	39011	805	43570.27389
1	39067	806	43624.39389
1	39123	807	43678.51389
1	39179	808	43732.63389
1	39192	809	43786.75389
1	39254	810	43840.94407308
1	39310	811	43895.13425616
1	39366	812	43949.25425616
1	39422	813	44003.37425616
1	39435	814	44057.49425616
1	39454	815	44111.61425616
1	39510	816	44165.73425616
1	39566	817	44219.8595586
1	39622	818	44273.9795586
1	39635	819	44328.0995586
1	39654	820	44382.2195586
1	39710	821	44436.3395586
1	39766	822	44490.4595586
1	39822	823	44544.58486104
1	39835	824	44598.70486104
1	39854	825	44652.82486104
1	39910	826	44706.94486104
1	39966	827	44761.06486104
1	40022	828	44815.18486104
1	40078	829	44869.31016348
1	40140	830	44923.43016348
1	40196	831	44977.55016348
1	40252	832	45031.67016348
1	40308	833	45085.79016348
1	40364	834	45139.91016348
1	40426	835	45194.03546592
1	40482	836	45248.225649
1	40538	837	45302.345649
1	40594	838	45356.465649
1	40650	839	45410.585649
1	40712	840	45464.705649
1	40768	841	45518.825649
1	40824	842	45573.01583208
1	40880	843	45627.13583208
1	40936	844	45681.25583208
1	40955	845	45735.37583208
1	41011	846	45789.49583208
1	41067	847	45843.61583208
1	41123	848	45897.74113452
1	41136	849	45951.86113452
1	41198	850	46005.98113452
1	41254	851	46060.10113452
1	41310	852	46114.22113452
1	41366	853	46168.34113452
1	41422	854	46222.46643696
1	41484	855	46276.58643696
1	41540	856	46330.70643696
1	41596	857	46384.82643696
1	41652	858	46438.94643696
1	41665	859	46493.06643696
1	41684	860	46547.18643696
1	41740	861	46601.37662004
1	41796	862	46655.49662004
1	41852	863	46709.61662004
1	41865	864	46763.73662004
1	41884	865	46817.85662004
1	41940	866	46871.97662004
1	41996	867	46926.10192248
1	42052	868	46980.22192248
1	42108	869	47034.34192248
1	42127	870	47088.46192248
1	42183	871	47142.581922481
1	42239	872	47196.701922481
1	42295	873	47250.892105561
1	42351	874	47305.012105561
1	42413	875	47359.132105561
1	42469	876	47413.252105561
1	42525	877	47467.372105561
1	42581	878	47521.492105561
1	42594	879	47575.612105561
1	42613	880	47629.732105561
1	42669	881	47683.852105561
1	42725	882	47737.972105561
1	42781	883	47792.092105561
1	42794	884	47846.212105561
1	42813	885	47900.332105561
1	42869	886	47954.522288641
1	42925	887	48008.642288641
1	42981	888	48062.762288641
1	42994	889	48116.882288641
1	43013	890	48171.002288641
1	43069	891	48225.122288641
1	43125	892	48279.312471721
1	43181	893	48333.432471721
1	43237	894	48387.552471721
1	43256	895	48441.672471721
1	43312	896	48495.792471721
1	43368	897	48549.912471721
1	43424	898	48604.037774161
1	43480	899	48658.157774161
1	43542	900	48712.277774161
1	43598	901	48766.397774161
1	43654	902	48820.517774161
1	43710	903	48874.637774161
1	43766	904	48928.763076601
1	43828	905	48982.883076601
1	43884	906	49037.003076601
1	43940	907	49091.123076601
1	43996	908	49145.243076601
1	44009	909	49199.363076601
1	44028	910	49253.483076601
1	44084	911	49307.673259681
1	44140	912	49361.793259681
1	44196	913	49415.913259681
1	44252	914	49470.033259681
1	44271	915	49524.153259681
1	44327	916	49578.273259681
1	44383	917	49632.463442761
1	44439	918	49686.583442761
1	44495	919	49740.703442761
1	44557	920	49794.823442761
1	44613	921	49848.943442761
1	44669	922	49903.063442761
1	44725	923	49957.253625841
1	44781	924	50011.373625841
1	44800	925	50065.493625841
1	44856	926	50119.613625841
1	44912	927	50173.733625841
1	44968	928	50227.853625841
1	44981	929	50281.973625841
1	45000	930	50336.093625841
1	45056	931	50390.213625841
1	45112	932	50444.333625841
1	45168	933	50498.453625841
1	45181	934	50552.573625841
1	45200	935	50606.693625841
1	45256	936	50660.883808921
1	45312	937	50715.003808921
1	45368	938	50769.123808921
1	45424	939	50823.243808921
1	45486	940	50877.363808921
1	45542	941	50931.483808921
1	45598	942	50985.609111361
1	45654	943	51039.729111361
1	45710	944	51093.849111361
1	45729	945	51147.969111361
1	45785	946	51202.089111361
1	45841	947	51256.209111361
1	45897	948	51310.334413801
1	45953	949	51364.454413801
1	45972	950	51418.574413801
1	46028	951	51472.694413801
1	46084	952	51526.814413801
1	46140	953	51580.934413801
1	46153	954	51635.054413801
1	46172	955	51689.174413801
1	46228	956	51743.294413801
1	46284	957	51797.414413801
1	46340	958	51851.534413801
1	46396	959	51905.654413801
1	46415	960	51959.774413801
1	46471	961	52013.964596881
1	46527	962	52068.084596881
1	46583	963	52122.204596881
1	46639	964	52176.324596881
1	46658	965	52230.444596881
1	46714	966	52284.564596881
1	46770	967	52338.689899321
1	46826	968	52392.809899321
1	46882	969	52446.929899321
1	46901	970	52501.049899321
1	46957	971	52555.169899321
1	47013	972	52609.289899321
1	47069	973	52663.415201761
1	47125	974	52717.535201761
1	47187	975	52771.655201761
1	47243	976	52825.775201761
1	47299	977	52879.895201761
1	47355	978	52934.015201761
1	47368	979	52988.135201761
1	47430	980	53042.255201761
1	47486	981	53096.375201761
1	47542	982	53150.495201761
1	47598	983	53204.615201761
1	47654	984	53258.735201761
1	47673	985	53312.855201761
1	47729	986	53367.045384841
1	47785	987	53421.165384841
1	47841	988	53475.285384841
1	47897	989	53529.405384841
1	47916	990	53583.525384841
1	47972	991	53637.645384841
1	48028	992	53691.770687281
1	48084	993	53745.890687281
1	48097	994	53800.010687281
1	48116	995	53854.130687281
1	48172	996	53908.250687281
1	48228	997	53962.370687281
1	48284	998	54016.495989721
1	48297	999	54070.615989721
1	48316	1000	54124.735989721
1	48372	1001	54178.855989721
1	48428	1002	54232.975989721
1	48484	1003	54287.095989721
1	48497	1004	54341.215989721
1	48516	1005	54395.335989721
1	48572	1006	54449.455989721
1	48628	1007	54503.575989721
1	48684	1008	54557.695989721
1	48697	1009	54611.815989721
1	48716	1010	54665.935989721
1	48772	1011	54720.126172801
1	48828	1012	54774.246172801
1	48884	1013	54828.366172801
1	48940	1014	54882.486172801
1	48959	1015	54936.606172801
1	49015	1016	54990.726172801
1	49071	1017	55044.851475241
1	49127	1018	55098.971475241
1	49140	1019	55153.091475241
1	49159	1020	55207.211475241
1	49215	1021	55261.331475241
1	49271	1022	55315.451475241
1	49327	1023	55369.576777681
1	49340	1024	55423.696777681
1	49359	1025	55477.816777681
1	49415	1026	55531.936777681
1	49471	1027	55586.056777681
1	49527	1028	55640.176777681
1	49583	1029	55694.302080121
1	49602	1030	55748.422080121
1	49658	1031	55802.542080121
1	49714	1032	55856.662080121
1	49770	1033	55910.782080121
1	49826	1034	55964.902080121
1	49888	1035	56019.027382561
1	49944	1036	56073.217565641
1	50000	1037	56127.337565641
1	50056	1038	56181.457565641
1	50069	1039	56235.577565641
1	50088	1040	56289.697565641
1	50144	1041	56343.817565641
1	50200	1042	56397.942868081
1	50256	1043	56452.062868081
1	50269	1044	56506.182868081
1	50331	1045	56560.302868081
1	50387	1046	56614.422868081
1	50443	1047	56668.542868081
1	50499	1048	56722.668170521
1	50512	1049	56776.788170521
1	50531	1050	56830.908170521
1	50587	1051	56885.028170521
1	50643	1052	56939.148170521
1	50699	1053	56993.268170521
1	50712	1054	57047.388170521
1	50731	1055	57101.508170521
1	50787	1056	57155.628170521
1	50843	1057	57209.748170521
1	50899	1058	57263.868170521
1	50912	1059	57317.988170521
1	50974	1060	57372.178353601
1	51030	1061	57426.368536681